# vtk DataFile Version 3.0
2D-vertex
ASCII
DATASET UNSTRUCTURED_GRID

POINTS 1998 float
0.8724 -6.67734 0
3.32558 -6.40431 0
3.68855 -5.44872 0
2.63747 -4.40979 0
0.359627 -4.32077 0
-0.32269 -5.82182 0
4.22131 -5.40018 0
4.77165 -4.52961 0
3.80168 -3.04636 0
2.75927 -3.38963 0
1.5526 -2.16584 0
-0.150427 -1.72937 0
-0.884054 -3.02051 0
-1.0432 -3.06372 0
-1.52044 -4.73492 0
-0.991466 -5.60488 0
5.34705 -4.66989 0
6.13952 -3.76288 0
4.2648 -2.28823 0
3.99264 -2.36366 0
3.09312 -1.43211 0
2.02552 -1.54761 0
1.2799 2.05524 0
0.427223 2.00837 0
-0.346726 0.110704 0
-1.53717 -0.825638 0
-1.41116 -2.72066 0
-2.69961 -3.04095 0
-3.18606 -4.07667 0
-2.86883 -4.77935 0
7.20843 -3.71859 0
7.81248 -2.96832 0
7.59182 -1.66433 0
5.34754 -0.572742 0
5.80076 0.0230568 0
3.41609 1.28019 0
2.61526 2.54443 0
1.72766 2.67672 0
0.731287 5.85684 0
-0.84474 5.85689 0
-0.463194 2.79503 0
-1.94305 1.81984 0
-2.95954 0.253922 0
-3.92176 0.268541 0
-4.62724 -1.14642 0
-6.03192 -1.48128 0
-6.29514 -2.54274 0
-4.7444 -3.87242 0
8.00043 -1.0124 0
7.62653 0.0066005 0
6.86682 0.395993 0
6.05875 2.43305 0
3.67624 3.5434 0
3.57653 4.42071 0
2.0871 6.00974 0
2.60345 6.73069 0
-1.82599 7.2292 0
-1.70677 6.28911 0
-2.93068 4.91544 0
-2.56083 2.76789 0
-4.19772 3.04542 0
-5.55709 1.7088 0
-7.44791 0.194669 0
-7.29507 -0.34351 0
8.52969 0.454283 0
8.52961 0.456782 0
6.97275 2.4486 0
7.35817 3.67545 0
6.03805 4.89249 0
6.22054 5.59292 0
5.37352 6.58438 0
5.06387 7.11192 0
-2.53858 9.54306 0
-2.81574 9.15849 0
-5.94484 6.16956 0
-5.26803 5.39184 0
-5.97629 4.0075 0
-5.88857 3.83921 0
-8.43855 0.699202 0
-8.2792 0.33775 0
10.0419 0.82947 0
10.3196 1.80762 0
9.484 2.75939 0
10.6204 3.23283 0
10.2468 4.75228 0
10.4029 5.47981 0
9.33427 10.0846 0
10.1817 12.2246 0
-9.41374 11.2088 0
-9.41356 11.2063 0
-9.90537 5.30391 0
-9.60294 4.77562 0
-9.93958 4.13879 0
-9.18111 3.04547 0
-9.96871 1.77679 0
-9.49064 0.79158 0
4.30344 -8.22288 0
5.49167 -7.62736 0
6.31848 -7.18561 0
8.61049 -5.48899 0
9.84216 -3.99402 0
11.0707 -1.59443 0
11.1614 -1.40904 0
11.8148 -0.291309 0
12.5003 1.68098 0
12.6695 2.48844 0
12.6444 6.03145 0
12.7172 12.8422 0
-12.9637 11.7278 0
-12.4667 5.25137 0
-12.3738 3.95537 0
-11.9679 1.39603 0
-11.0633 -0.536171 0
-10.1794 -1.62657 0
-9.55119 -2.34639 0
-8.59527 -3.66727 0
-6.59415 -5.75299 0
-4.46587 -7.09073 0
-2.32312 -8.01466 0
0.713208 -8.72218 0
12.4098 7.53976 0
8.34129 7.48205 0
-12.7342 7.7806 0
-9.85234 8.57432 0
-0.0859179 -0.218024 0
1.20949 -0.0756001 0
-1.68678 1.79515 0
-0.883249 0.0860782 0
4.66725 1.52899 0
5.03315 2.46742 0
0.390189 7.47302 0
0.198503 6.32936 0
-1.00651 4.1341 0
-2.18092 3.80791 0
6.05771 2.43531 0
5.13861 4.37877 0
4.14557 4.83853 0
4.1002 6.21892 0
2.03112 7.76985 0
2.02925 7.76818 0
-2.28195 7.42405 0
-3.84055 5.5959 0
-3.38721 4.91973 0
-4.33418 3.6315 0
1.69302 -2.79884 0
0.27739 -3.84834 0
6.76156 -1.45675 0
5.73165 -3.04627 0
5.34546 -0.571358 0
3.29509 0.156658 0
-8.77418 6.95394 0
-5.76452 6.86974 0
3.29259 0.156608 0
1.83722 0.778891 0
-9.18549 2.97655 0
-7.76669 2.38505 0
-0.355457 -5.83993 0
-0.674961 -8.53015 0
13.8363 27.45 0
17.0791 26.0095 0
1.67523 -6.30325 0
1.73135 -4.85091 0
2.57006 4.76277 0
1.43199 3.70053 0
8.19334 7.01126 0
5.37358 6.58689 0
7.81592 17.9194 0
-0.166497 9.45822 0
-2.29619 -5.02051 0
-2.91098 -7.7902 0
-4.03106 -2.05489 0
-4.88562 -3.25362 0
-5.13134 -6.72767 0
-4.13795 -4.25387 0
0.499617 4.1378 0
-0.397243 3.67866 0
9.45886 2.60523 0
7.9089 1.74073 0
5.97532 -4.30236 0
7.7683 -6.2202 0
2.27462 -8.73476 0
2.23437 -6.71428 0
-5.83947 -3.15894 0
-7.37493 -5.07582 0
-5.13375 0.617039 0
-6.42771 -0.65225 0
7.85473 -1.51863 0
10.3788 -3.08139 0
-12.2351 2.78557 0
-9.20301 3.0082 0
12.8416 4.54977 0
10.771 4.26169 0
-2.50905 -0.671342 0
-3.37773 -2.04797 0
-9.10674 -2.91858 0
-6.40166 -1.21722 0
-3.38427 2.55537 0
-4.09478 0.559621 0
-6.6188 2.58629 0
-6.17989 1.78678 0
8.31088 3.88872 0
8.49577 4.38914 0
-0.915543 9.27686 0
-0.640119 8.10496 0
12.4138 7.54904 0
9.69959 8.68821 0
9.43716 10.973 0
1.67928 8.3719 0
7.82314 5.63035 0
8.99646 6.39953 0
-7.11953 4.0933 0
-7.4703 4.84912 0
-2.34171 11.62 0
0.544457 10.8126 0
-9.78008 9.0828 0
-4.00577 8.97461 0
8.99502 6.40159 0
12.4571 7.06762 0
-10.5367 10.2544 0
-13.0483 10.7331 0
-12.5191 6.2573 0
-9.04272 6.50457 0
11.9466 15.5528 0
9.48248 13.68 0
7.98261 7.92229 0
5.8524 8.01062 0
-9.04276 6.50205 0
-7.16444 5.8188 0
1.91531 11.3823 0
3.70294 9.76032 0
-4.28563 7.35784 0
-3.52424 6.72696 0
4.38947 9.53805 0
3.56255 7.92642 0
12.6602 9.25982 0
9.87778 9.24193 0
-2.95756 11.173 0
-4.42111 9.94352 0
-12.9894 23.1061 0
-0.165027 12.4825 0
-6.35258 7.40953 0
-4.28689 9.16495 0
-12.5944 6.98993 0
-9.22407 7.54708 0
5.19572 13.7174 0
7.51809 11.7123 0
-1.33646 11.2251 0
-0.754339 9.48162 0
-9.90668 14.499 0
-13.2083 13.5361 0
17.7829 31.1234 0
1.79003 12.5381 0
-2.92197 14.0031 0
-9.83817 14.937 0
-10.5047 9.56477 0
-12.9485 8.83519 0
-6.3779 11.2183 0
-5.82502 10.1377 0
-6.2241 8.17919 0
-7.00035 9.1049 0
12.7882 11.0081 0
10.174 11.5702 0
-10.689 15.9722 0
-13.7505 15.8782 0
5.59357 9.12354 0
4.41126 9.46478 0
9.48472 12.8606 0
7.54091 12.2851 0
3.47519 10.9611 0
5.9383 13.0248 0
-2.16901 13.2233 0
-0.778782 13.5371 0
13.1471 17.5497 0
10.2168 18.7286 0
-0.125289 12.4749 0
0.735124 13.1717 0
10.8869 20.4913 0
3.30169 13.1352 0
12.7092 10.1172 0
9.60037 10.4607 0
-8.22226 10.7114 0
-8.25403 9.82706 0
-9.11487 7.89971 0
-7.00605 8.7156 0
-9.54184 14.1548 0
-5.91133 13.1114 0
20.2648 34.4501 0
22.5248 34.2366 0
1.34743 10.737 0
2.21601 9.1987 0
-3.87571 12.8709 0
-3.7351 11.5389 0
-13.0545 12.7969 0
-9.76127 13.4345 0
-0.629641 15.227 0
-0.631871 15.2258 0
7.18671 10.0541 0
6.71065 10.9693 0
8.19615 8.43732 0
7.07289 9.78926 0
-10.6326 15.4369 0
-13.417 14.2884 0
-2.76082 14.0059 0
-1.74737 15.5488 0
1.02134 14.4057 0
2.46354 14.4286 0
5.69657 11.1004 0
5.35361 11.7893 0
-7.07937 14.4037 0
-6.8036 14.9679 0
-8.80859 11.9944 0
-6.13914 12.1921 0
3.28339 13.0834 0
4.14542 11.8228 0
-9.95476 17.9875 0
-3.78864 15.2167 0
13.59 18.4229 0
11.0032 19.6143 0
-16.1675 22.0112 0
-13.5217 22.2188 0
7.52049 14.075 0
6.76862 13.1305 0
11.9224 15.6662 0
7.94642 16.9421 0
3.108 15.8195 0
4.77031 16.4299 0
0.505034 17.3609 0
2.49614 16.2774 0
-1.00705 24.0361 0
-3.53416 22.3039 0
-2.95584 20.5882 0
-4.21101 17.2299 0
-5.97418 11.9621 0
-3.93348 11.4167 0
-9.20787 16.9165 0
-7.75681 15.8527 0
6.41388 21.3718 0
5.98111 18.2667 0
-12.9646 12.0945 0
-9.11433 12.4614 0
-9.04525 12.6314 0
-6.83211 13.6218 0
-0.65106 17.6635 0
-0.383203 17.3031 0
13.3721 26.8757 0
1.66375 21.1996 0
16.1376 23.2028 0
13.844 23.8609 0
-14.6818 17.6486 0
-11.8063 18.486 0
-5.12399 13.4889 0
-4.95919 14.8966 0
6.88257 14.9754 0
5.78732 14.9583 0
0.703878 14.9152 0
1.30925 16.0203 0
9.67824 13.3283 0
12.5288 13.8315 0
11.9206 15.6334 0
7.50312 14.4091 0
-11.4581 19.5071 0
-4.19307 17.7913 0
-2.32471 16.6624 0
-3.37571 16.5193 0
2.8163 21.4329 0
3.4588 20.6527 0
-5.45938 15.3232 0
-5.34801 16.6265 0
3.13475 15.1503 0
5.18949 14.3245 0
-1.93998 20.533 0
-0.515822 22.1118 0
1.77024 27.5897 0
11.1434 27.3986 0
-19.2102 35.9349 0
-20.7663 34.8643 0
-21.5632 45.8391 0
-2.4818 23.5724 0
-13.8401 16.0451 0
-11.6073 18.1692 0
-1.82592 17.5911 0
-3.23508 18.531 0
-6.89858 18.1551 0
-5.46111 18.5914 0
11.816 23.2694 0
10.4953 26.5961 0
3.95186 18.8074 0
5.40193 19.0713 0
10.161 18.9193 0
7.22338 20.0415 0
12.1599 16.048 0
10.0416 18.5129 0
-13.1202 21.4984 0
-3.60289 19.8324 0
15.2261 21.4904 0
13.4181 23.1976 0
1.55577 18.3759 0
2.71749 17.6157 0
-15.3491 19.0539 0
-13.1828 20.421 0
-1.81789 25.8228 0
3.37342 22.7871 0
-0.00102044 19.2775 0
1.22193 19.5671 0
-7.74252 16.0632 0
-6.37028 17.0644 0
7.08994 16.1889 0
5.55292 17.0561 0
-1.43026 19.7159 0
-2.24251 18.3635 0
11.9162 15.6451 0
7.27225 15.676 0
-2.58731 22.9606 0
-1.37146 21.9013 0
-5.41425 19.3633 0
-4.45767 20.0607 0
-4.2346 22.4128 0
-4.91978 21.4102 0
-13.7565 15.8864 0
-9.85958 17.5557 0
4.37841 22.7704 0
5.02597 21.424 0
-0.344175 28.759 0
24.6905 56.4679 0
-7.6462 19.0278 0
-7.37584 20.233 0
16.4952 74.4459 0
17.5149 75.8629 0
-9.58526 25.1216 0
-7.71767 27.8828 0
8.3812 18.3448 0
7.07931 19.6996 0
14.0241 19.2377 0
11.2698 20.7507 0
4.68271 20.7931 0
5.58868 19.51 0
1.62548 19.2101 0
3.12934 19.673 0
2.74684 23.5095 0
4.61229 27.3565 0
3.72843 17.9707 0
4.88656 16.86 0
1.21097 21.6756 0
1.59339 23.1632 0
11.9654 15.7676 0
8.35519 18.2002 0
-6.68832 34.1215 0
-4.48277 30.3317 0
-13.4519 24.4643 0
-16.4699 23.8604 0
-0.433991 19.8096 0
0.139208 21.4213 0
-6.85128 20.4237 0
-6.52634 21.4093 0
-9.21856 17.2849 0
-6.90652 18.1344 0
7.61139 23.6167 0
8.54249 21.7272 0
-15.9674 20.8316 0
-13.4088 21.0736 0
-6.93897 22.0425 0
-6.88072 23.7286 0
4.637 31.9392 0
8.02306 29.659 0
-13.8789 26.2663 0
-9.40946 26.2636 0
7.49521 24.3011 0
5.05501 25.9977 0
2.10409 27.2493 0
1.13428 25.215 0
-4.46569 24.2839 0
-4.26515 24.4469 0
19.9707 33.5373 0
21.8664 32.3623 0
-0.212696 23.3231 0
0.962145 23.722 0
-8.92988 20.9287 0
-9.07492 21.2942 0
6.59781 36.5348 0
13.2932 43.9512 0
-3.0935 24.2935 0
-2.53027 25.6674 0
13.5923 24.4699 0
11.1714 25.0386 0
-20.1506 39.5937 0
-22.2035 38.4406 0
-18.2438 38.1363 0
-8.02287 33.0259 0
8.82492 21.0162 0
8.36899 20.1665 0
-9.95907 23.2117 0
-8.47598 22.1077 0
11.5854 22.9259 0
9.20901 23.0355 0
-1.73223 36.3373 0
-0.529851 30.5553 0
-9.25837 18.8853 0
-9.76182 19.7794 0
16.5499 24.4265 0
14.038 25.023 0
14.413 19.8859 0
12.0082 21.7079 0
16.4043 29.5609 0
12.5369 31.0861 0
-1.6913 28.6978 0
-1.38685 26.9543 0
-15.702 30.6212 0
-17.8626 29.2716 0
2.91775 24.8133 0
1.80608 25.5429 0
7.15611 28.8649 0
6.3011 25.6604 0
4.91729 23.316 0
4.02392 24.7254 0
-5.78114 27.4155 0
-5.16197 28.2853 0
6.89735 22.0273 0
6.6688 22.7426 0
5.4697 29.0576 0
6.13464 31.8444 0
-13.4178 24.5692 0
-10.2796 24.8265 0
18.0029 30.3859 0
20.2715 29.443 0
-8.29586 24.527 0
-5.56822 26.7027 0
-14.1205 33.2263 0
-10.1283 31.0539 0
3.28191 31.4729 0
2.89733 31.7655 0
-16.3189 23.0332 0
-13.1478 23.3662 0
-16.7049 25.0068 0
[...]
CELL_DATA 2997
SCALARS current_Length float
LOOKUP_TABLE default
0.885709
1.0222
1.47788
1.4706
1.64885
1.46974
0.534972
1.02993
1.77224
1.09748
1.02741
1.21898
1.75807
1.48501
0.479538
0.164911
1.73801
1.01815
0.0374379
0.592261
0.563917
0.824548
0.282416
0.708908
1.29496
1.07383
0.778362
1.06028
0.853962
2.04942
0.419623
0.537088
1.8992
0.503077
1.32767
1.14427
0.770966
0.826648
1.06983
0.96322
1.32252
0.855816
2.0286
0.00249754
1.27566
1.60119
1.49654
0.897402
0.765988
1.06564
0.712137
0.886088
1.18814
1.58016
1.86691
0.984051
0.962331
1.58108
1.20244
1.44404
1.09361
0.634719
0.716436
0.526781
1.08543
0.853693
1.1294
2.19148
1.73175
1.45726
0.882957
1.063
1.36441
0.886786
1.18579
0.94762
0.964318
1.83982
1.10724
1.13156
0.850425
1.90642
0.338621
0.627662
0.559459
0.565575
1.00802
0.0025005
1.42612
0.00248877
1.28596
1.79552
0.70596
0.723809
1.30401
1.58183
0.00251523
1.70802
0.474034
0.495851
1.20416
1.03099
0.456548
1.555
0.189772
0.601751
1.45019
0.395019
0.84352
1.55752
1.01681
1.17349
0.976291
1.2311
1.03982
1.60304
0.744078
1.00717
1.1956
0.460715
1.52756
0.00250658
1.48036
0.870247
0.608735
2.13391
0.720332
1.33064
2.31259
0.043225
1.09508
1.05614
2.06481
1.32911
2.564
0.937418
2.69676
1.11533
2.25833
2.27414
1.64005
3.125
0.206373
3.22458
1.29468
2.09743
2.1844
0.824985
2.18008
2.0685
2.30838
0.474492
2.60961
3.58774
1.07614
2.56191
1.29933
2.44112
1.178
2.03515
2.05816
1.40364
2.733
0.955387
3.01689
0.724521
2.5603
2.63782
1.75779
2.80945
0.629256
2.75324
1.40139
2.05103
1.56146
1.937
2.08805
0.754934
2.1335
1.03353
0.0100785
0.567859
4.06896
0.802938
0.999483
2.98916
1.51272
1.68307
1.30322
0.257454
1.12198
1.88855
1.88486
1.02618
1.00724
1.20867
1.14525
1.15961
1.73037
1.33745
1.21886
0.915142
1.03581
2.14983
1.09431
1.32472
1.38114
0.697321
1.66543
0.00250185
1.81472
1.44199
1.42451
0.81408
1.56821
1.59883
0.648393
1.42627
1.76223
1.66761
1.65114
1.89402
0.748755
1.13003
2.17578
0.523491
0.723022
2.46409
0.0024983
1.39272
1.58283
1.43278
1.81479
1.53716
0.678055
1.7269
2.70913
0.943552
1.81702
3.54835
0.693955
1.00779
1.45343
1.33722
1.02982
1.55679
0.493491
0.60957
2.85151
0.60799
0.588307
1.86739
0.621356
1.70497
2.8371
1.08662
0.958534
1.47214
0.758069
0.968241
2.66581
1.73458
0.760679
1.00756
0.156203
1.17365
1.77475
0.727872
1.74183
2.62543
2.0924
1.13438
2.02089
0.766378
1.86367
2.45603
1.17096
0.920672
1.81258
0.30058
1.05873
2.96874
1.41499
0.0361788
3.04023
1.49475
0.717942
2.09057
1.0291
0.653366
1.62779
0.906721
0.454356
3.19563
0.949659
1.04055
2.11845
1.1654
2.03536
0.912067
1.62837
1.78831
0.53348
1.64472
1.47419
1.20383
1.72844
0.581683
2.94355
0.948501
2.14172
2.05654
1.41175
1.68045
1.40297
1.14646
1.26903
0.833247
1.68294
1.52966
0.0404583
0.513588
1.64081
0.790052
0.00251367
1.05297
3.52552
1.47226
0.998258
2.55673
1.0073
0.00252145
3.48517
0.084677
2.00135
3.09501
0.557548
1.14262
2.13203
1.47636
1.01678
1.99874
0.859586
1.58946
1.61575
1.55736
1.17446
0.988797
0.721612
1.53942
1.75695
0.858752
1.00272
2.78245
0.760951
1.41728
0.859337
0.501583
1.71848
1.69504
0.798246
0.3395
0.780311
0.736483
0.744461
3.41603
1.9815
2.03704
0.573231
1.08001
0.260601
1.83813
0.443316
0.780697
3.43918
0.828807
1.16258
1.36948
0.16117
0.938616
1.30061
0.690407
1.90057
2.55039
1.91274
1.4468
1.2138
2.17358
1.56463
0.389344
1.83544
0.654389
2.6739
1.03466
0.840852
3.06297
1.62221
0.076441
1.23057
0.402551
1.01543
2.02722
1.22218
1.14505
1.20865
1.61256
1.22025
1.42523
0.979016
0.198601
3.15855
1.7921
1.23054
1.10718
0.462452
0.0548887
2.12771
0.894454
0.537707
3.1277
1.29001
1.69787
0.884875
0.369151
0.948252
2.26115
0.752967
0.947141
2.47502
0.959002
1.98651
2.27012
0.806521
0.985739
1.76661
0.873158
0.233001
1.33939
0.708229
1.07593
3.35441
1.69127
1.01735
0.00250536
2.14778
1.09724
1.03165
1.52424
0.288236
1.75768
0.538292
1.62444
3.01191
0.981217
1.16133
1.84601
1.26673
1.54123
1.44238
1.02252
1.36689
0.769497
0.820043
1.49129
0.627939
0.991637
0.283053
2.67677
1.5898
1.09168
1.52718
0.442212
1.39039
1.36645
0.923291
0.884741
2.84799
1.19644
0.824732
2.65399
0.334617
0.83702
1.20723
0.110116
0.985931
4.1757
0.669753
0.87122
1.77084
0.89011
0.764242
1.56329
1.29977
0.708851
1.54591
1.81062
1.13618
1.21034
0.846335
1.5518
2.11231
1.75651
2.27389
1.69568
1.38889
0.694618
1.50264
0.366653
0.558229
3.86768
0.183519
1.05278
2.42464
1.25433
2.09077
0.448968
0.73848
1.06742
2.28921
1.29126
0.658947
2.3862
1.811
0.374071
2.99503
1.3929
1.21352
1.41728
0.801678
1.78887
1.09538
0.600345
1.21442
1.26005
0.506145
1.00711
2.89461
0.0125256
0.840083
4.58398
1.07876
0.561616
1.718
1.05415
1.09671
1.0607
1.17592
1.03363
1.01071
0.657403
1.28722
1.308
0.985592
0.607187
2.21446
1.00067
0.951825
0.881165
1.34852
0.694222
0.257795
1.31923
1.12443
1.88885
0.920172
0.620885
2.01451
0.179408
1.66254
3.08174
1.17709
0.994947
0.877613
0.0221136
1.49937
1.50221
1.60377
1.03154
1.84542
0.866039
0.991326
1.47387
1.09189
1.55727
2.18335
1.79717
0.277899
3.2501
0.513536
1.35236
1.42646
1.93988
0.788281
2.48653
1.46092
1.35645
1.38832
0.922485
1.42492
2.56162
1.33426
1.46427
1.50293
1.74003
0.538827
1.25677
0.210937
1.11214
1.69867
1.14057
1.28412
1.76477
0.963126
1.0066
1.57752
0.0219807
0.544375
4.64405
1.15227
1.48164
1.61259
0.773316
0.884749
1.18385
0.754415
0.438341
1.21433
0.010161
0.695845
4.2394
1.00512
0.718209
1.49403
1.34941
0.899915
1.37462
1.14914
0.558139
1.23523
1.25601
1.8974
1.74583
1.41988
0.235543
1.67428
1.6689
0.370991
1.87897
0.755918
0.708932
3.14244
1.23194
0.476876
1.5707
0.837109
1.19403
1.5735
0.956336
0.737087
1.31487
1.07147
0.445478
1.6047
0.656946
1.20433
1.5359
0.341292
0.146905
4.35327
0.463277
1.42381
1.79265
1.49463
1.00778
3.07784
0.686003
1.10154
1.71053
1.78594
1.60656
1.03778
0.368638
1.19688
2.46316
0.766839
0.81453
1.06942
1.88209
0.690632
2.57001
0.755754
1.59986
0.957592
1.07751
1.17566
0.723919
0.870673
1.15553
2.34528
0.51105
1.42906
1.11285
0.476816
1.41122
0.747546
0.72297
1.18166
0.258461
0.954409
1.22379
2.23031
1.24858
0.843041
1.24072
1.70266
1.5384
0.393187
1.16636
0.586764
1.25466
0.94553
0.729116
1.48495
0.710356
0.755
2.48682
0.856908
1.73961
2.35455
0.0647562
0.994312
0.612163
0.765106
1.15241
0.964266
0.970244
1.01022
1.0115
0.41373
1.70005
2.00714
1.52582
1.61028
1.32159
1.61845
1.41885
1.02612
1.11056
1.18295
2.58169
1.78876
0.376391
3.01707
0.769594
1.34114
1.15588
1.24339
1.21088
0.925064
1.02215
1.17088
2.54747
0.342705
1.73223
1.32974
1.30421
1.29094
0.902422
1.84296
1.63762
0.412643
0.743952
1.04927
1.06767
1.6723
1.28549
0.75089
1.69739
1.7618
0.379717
0.110282
0.726331
2.25225
0.824079
1.89024
2.45675
1.25329
1.10954
1.77694
0.999478
1.42887
1.72484
1.43307
1.45153
0.483233
1.0332
0.304541
3.18859
1.17022
1.19173
2.53698
1.01472
0.893654
1.05307
1.54787
1.53238
0.540909
1.36018
1.3782
0.859452
0.770568
1.2812
2.07687
0.619449
1.10371
1.16813
0.00250009
1.5895
1.28578
0.88638
0.747435
1.50032
0.813533
0.7889
2.97765
1.65673
0.53762
1.4607
0.762714
0.568346
2.22612
0.110024
1.44686
1.95714
1.0348
1.80153
0.00250922
2.3829
2.35161
0.859837
0.872749
1.04458
1.1621
0.860315
1.11587
1.43335
0.633815
0.491109
3.45863
0.993764
1.25343
0.968828
1.25656
2.13906
1.87992
0.0100447
1.0282
3.13575
0.652239
1.13722
2.21605
1.79072
1.79893
0.801551
1.88648
1.57437
0.967693
0.707322
1.17036
1.41811
0.502297
1.04631
2.48108
0.255842
1.67867
0.331927
1.19209
0.443311
2.81355
1.16031
1.15457
1.01545
0.849085
1.39495
1.10864
0.428054
0.633823
0.65059
1.49919
0.59033
0.987546
0.55956
0.716397
3.31262
1.09729
0.45776
1.20832
1.27109
0.953248
1.84448
1.00819
1.36616
1.07103
0.0100425
1.99292
3.07161
0.854977
1.01978
2.41378
0.681237
1.02572
1.93813
0.958842
1.32037
1.85788
0.454757
1.76416
2.89566
0.842153
1.36099
1.66405
1.02902
1.51865
0.204412
0.130381
1.03751
2.43418
0.303313
1.2323
0.682712
0.968423
1.09177
1.48023
1.79481
1.53004
1.24991
1.00299
1.39795
1.00496
0.223064
0.93007
2.12815
1.05916
1.87776
1.43402
0.0936843
0.940996
1.48279
0.00250026
0.412526
0.977073
1.27537
0.827634
0.736719
1.14556
0.69919
1.75874
1.14041
1.27377
1.31675
0.544783
1.13911
2.83342
1.08219
0.618434
2.87916
1.4237
1.50874
1.39924
0.648017
1.39847
0.916997
1.83999
1.49713
1.08628
1.50503
1.00651
1.54085
1.4514
2.02768
1.1533
1.45528
0.439428
0.881044
1.2634
0.57217
0.862487
1.01047
1.31231
2.0497
0.723446
1.0892
2.73101
1.23974
0.911942
2.13878
1.78603
1.38448
0.652635
1.16705
0.85143
1.20758
0.802065
0.97711
1.11424
1.89253
1.8307
0.1463
1.98926
2.07438
1.64347
1.08147
1.64042
1.09332
0.294007
1.37052
1.52074
1.63139
1.8662
0.970037
0.556004
0.345876
1.10441
1.45012
0.938284
2.08762
0.831174
0.00249857
3.77077
1.14357
1.73793
1.55509
1.54245
0.40746
1.27985
1.69831
1.23004
1.17417
0.745453
0.970394
0.978181
1.9357
0.645168
2.63335
0.889608
0.0115832
3.12475
0.858069
0.915667
0.623833
0.894489
0.545847
0.888636
0.157398
1.18919
2.07019
1.95244
1.36919
0.383542
0.713273
1.29999
1.71166
1.59582
1.37846
1.35963
1.01824
1.46366
1.46042
0.651729
1.34486
1.44056
0.963497
0.675023
1.21091
1.31554
1.45098
0.940254
0.753772
0.810972
1.35012
0.9771
1.01934
1.59823
1.65605
0.65473
1.19153
2.13563
1.26206
1.91319
0.495342
1.17149
2.1808
0.772647
0.973752
1.76671
1.92763
1.68543
1.21966
0.998255
0.587737
1.38612
1.3902
0.975319
0.840955
1.45863
1.49619
1.15211
1.2412
1.35605
0.815436
1.0205
1.85594
1.34819
1.12229
0.682925
1.1211
0.774879
1.75775
1.36471
0.713313
0.802792
1.57272
1.14179
1.02205
2.41002
0.686932
1.7736
1.95581
1.28814
1.03165
1.6597
0.721082
0.676735
1.41074
0.814508
1.13869
1.72618
0.333158
0.936748
3.62481
1.56149
1.71567
0.897957
0.873779
0.93693
2.72099
1.23817
0.994131
0.945957
1.46393
1.15588
0.815855
0.750937
1.47444
1.03258
1.36097
0.644354
2.38464
1.40732
0.689333
1.34945
0.561256
1.41128
0.719864
1.45429
1.43449
1.04388
0.855461
0.761134
0.629043
1.14864
0.56207
1.25806
0.716263
1.15695
1.55158
0.0270559
0.618284
4.25017
1.62118
1.62861
1.65258
1.01161
0.486629
1.63129
1.8523
1.28399
1.27886
1.55865
0.821228
1.73125
0.751654
1.52855
1.06535
0.954271
1.4155
1.8709
1.82873
0.966958
0.980719
1.23167
0.630641
0.775747
1.15257
0.809316
2.22014
1.22573
0.270287
1.39941
1.71687
1.39038
1.43959
0.88373
1.3579
1.53633
1.28002
1.16103
1.15559
0.551689
1.23146
1.92779
0.848053
1.0136
2.63523
1.10865
0.57051
2.83856
0.869545
0.0643288
3.99492
1.09666
0.149312
1.81687
1.05342
0.567052
1.5706
0.515175
0.941332
3.08364
0.917841
0.630463
0.554585
1.33443
1.59937
1.27129
0.677788
0.847002
2.31077
1.06174
0.895371
1.75797
0.6046
0.490455
1.79398
1.23118
0.857762
1.43421
1.57675
1.1522
1.68043
1.1978
1.15482
1.13664
1.54563
1.11549
0.970612
0.863255
0.815559
1.80354
1.3293
0.769101
0.650046
0.99626
1.68595
1.16307
1.15801
0.730144
0.805013
0.602478
0.301782
2.39984
0.825157
0.789496
0.852662
0.710739
0.662465
1.08568
0.706388
1.33571
1.18189
0.497953
1.17199
1.37475
1.00423
0.925421
0.659271
0.784807
1.44514
1.61121
0.892703
1.7214
1.05754
1.43785
1.33488
1.30053
2.05396
1.67257
0.649938
1.00322
1.96864
1.69092
1.15256
1.35735
0.677317
0.429292
0.775383
1.91332
1.40541
1.05779
1.45012
0.551563
1.51504
2.40682
0.998979
2
2.28078
1.36629
1.08724
2.57823
1.97278
1.0817
2.31379
1.11753
1.25779
1.18566
1.10617
0.869729
1.36006
1.42411
1.02355
1.43195
1.63078
0.451405
1.20863
1.11189
0.52985
1.51522
1.52791
1.5323
0.85187
0.905731
0.611129
1.65448
1.37274
1.42333
1.39146
1.06792
1.20206
0.847917
0.00250112
1.04111
1.4953
0.695037
0.895648
2.05674
1.32277
0.958837
1.74238
0.686973
1.64441
2.13273
1.80123
0.808161
1.12865
1.3964
1.35914
1.21732
0.743766
1.76615
1.44834
0.583457
1.21184
2.73881
0.880922
0.68216
3.00837
1.27348
0.913299
1.02583
1.4923
1.44032
0.671774
0.794221
1.12415
0.910711
1.49626
0.518711
0.940847
2.1899
0.859345
1.52386
2.25807
2.28402
0.851564
0.637913
1.29984
1.34086
1.18284
1.41678
1.39824
0.814559
1.08427
1.57665
1.45308
0.212582
1.78059
0.801537
1.4244
0.653882
0.663398
0.0025085
1.81605
1.00696
0.373541
1.44952
0.9072
0.562836
0.660244
1.48422
1.158
1.96781
1.50214
1.05501
1.27929
0.511351
0.944504
1.23177
0.573978
1.5026
1.34804
0.795788
1.07057
1.45072
1.31369
1.38299
0.914692
0.540875
1.4259
0.460015
1.11545
0.458088
1.39681
1.54348
1.28852
1.85878
0.751825
0.974115
2.72876
1.35343
0.772801
0.621819
1.08276
1.05564
1.9417
0.583476
1.34676
1.85796
1.06402
0.261307
1.82812
2.24684
1.20475
0.442688
0.959321
1.38377
1.1689
1.57064
1.53619
1.08885
0.536817
1.64937
1.38507
1.86928
0.00251463
2.05774
0.947365
1.49101
1.53895
1.44967
0.966342
1.10473
1.0946
1.46143
0.848402
0.556836
0.767714
3.28509
1.44329
1.51584
1.46821
1.17256
1.38498
1.56751
2.19628
1.249
0.565172
0.868764
1.50058
1.59893
0.701727
0.632619
1.89215
0.797959
0.66198
1.41354
1.35604
1.44839
1.71069
1.53891
0.915433
0.251932
0.199482
1.01277
1.86421
1.46325
0.581561
1.00147
1.40499
0.869486
1.4356
0.680512
0.722405
0.97257
1.46865
1.18959
1.63719
0.30823
0.789501
1.12602
1.66394
1.09049
1.01685
1.39481
0.815287
1.19789
1.94313
0.889023
2.34997
1.36234
0.485147
0.350009
1.31257
0.513065
2.03538
1.05241
1.66373
0.630271
1.03526
2.00795
0.984787
2.11847
1.20456
1.36098
0.52987
0.931029
1.23109
0.689674
1.04896
1.64768
0.496168
1.16373
1.60833
1.19752
1.01583
1.42245
1.41316
0.841439
0.972638
1.05585
1.31647
0.956911
1.11508
1.93002
0.863877
1.30263
1.9704
1.32841
2.22566
1.49778
1.18512
0.841402
0.882347
1.75583
0.744995
0.0653071
2.80254
1.61443
1.10586
1.50394
1.34238
1.33574
0.991355
1.03938
1.06166
1.3876
1.61109
1.76543
1.19537
1.04888
1.41302
0.679575
0.22116
0.0751542
1.42354
1.17306
1.29602
0.844567
1.24218
0.781608
0.649007
1.1503
0.7568
1.50124
1.9073
0.959635
1.60159
1.23763
0.881124
1.46826
1.03771
0.835159
1.91698
0.789476
1.07491
2.08942
1.09533
0.876966
1.13613
1.45348
0.580144
1.15385
0.926655
0.828422
1.92075
0.423142
0.166087
2.06886
0.984777
0.448687
1.05735
1.6002
1.6527
1.27865
0.432378
0.736704
1.76627
1.02908
0.548186
1.35281
0.756267
1.12937
0.564201
0.750728
0.596955
2.13376
1.4506
0.281933
0.999438
0.706178
1.34244
1.25562
1.25416
0.765162
2.41204
1.99036
0.723261
0.930565
0.616195
1.13922
2.72174
1.13701
0.37272
1.90963
0.518264
0.65811
1.36617
2.18665
1.19257
2.07277
0.58226
0.775047
1.69927
1.52776
1.46387
0.743638
1.79882
2.05733
0.878931
1.6612
0.788898
0.793277
1.04534
1.13001
1.42375
0.861752
1.35078
1.63868
1.53576
1.29553
0.853913
1.54257
1.13168
0.675266
0.507269
0.931312
1.08834
0.98108
1.64041
1.12472
0.255943
1.08547
1.36024
0.710846
1.49233
1.67284
0.107999
1.40073
1.8049
1.57394
0.833089
1.41101
1.40223
1.96931
1.02527
1.63231
1.73472
1.36992
1.29763
0.0257504
2.22208
2.0217
1.10052
2.12836
1.43012
1.59606
1.22603
0.245798
1.02186
1.27846
1.71912
1.12617
0.858861
1.31062
1.22284
1.8299
0.747275
1.26653
1.53788
1.14828
1.51639
1.40887
1.5681
1.79539
0.962412
0.661287
1.04181
1.41637
1.49614
0.91547
2.01755
0.741186
0.837593
2.18145
1.25126
1.58031
0.890501
0.00250127
1.17338
1.56903
0.451093
0.495505
1.71489
0.934598
1.4276
1.91548
1.38312
1.33766
1.61868
1.37893
1.227
1.49354
1.09469
1.02885
1.32805
0.888454
1.19254
0.814726
1.46069
1.72618
1.64454
1.9685
1.11785
2.08717
1.10007
0.216594
1.96596
1.15276
1.64751
0.871436
2.20448
1.2045
1.20505
0.975784
1.05225
2.43834
1.35277
1.37876
0.768827
0.801681
0.646772
1.0402
1.61331
1.06419
1.28117
1.72041
1.59904
1.59777
1.57853
1.77468
1.116
1.31613
1.58585
1.10474
1.09482
1.43686
1.19596
1.53427
0.660416
2.07979
0.696314
0.892873
1.33757
1.66479
1.44657
1.28999
1.31871
1.38275
0.754405
1.41861
0.440612
0.363511
0.981388
2.01622
1.67865
1.0373
1.85179
1.40354
0.70536
0.315193
1.1159
1.36395
1.52099
1.51918
0.65597
1.05356
1.21653
1.45417
0.725468
1.28046
0.855541
1.41978
1.94715
1.1172
0.676258
2.52255
2.40319
0.433596
1.03047
1.133
0.832809
1.37685
0.204449
0.659444
0.889642
0.629014
0.849689
1.56591
1.11718
1.36937
1.43493
1.33592
1.10144
1.62066
1.05179
1.36589
0.568513
1.07049
1.53554
0.279079
0.729427
0.524257
1.67629
0.86751
0.0426477
0.779062
1.17344
2.09181
0.988813
1.54349
1.2035
0.628408
1.10762
1.58453
1.80319
0.870155
1.79019
1.24138
0.46774
1.06337
1.88736
0.500938
1.15524
3.0042
1.9547
0.845864
0.830896
1.50161
0.52669
1.39879
1.52033
1.22368
0.854346
0.965066
0.584263
1.20774
1.25797
0.837354
0.803535
0.848915
1.34869
1.22044
1.95452
1.05192
1.5288
1.78909
1.93514
1.64454
1.24428
1.85074
1.03823
0.277548
1.34821
1.0333
0.510801
1.65831
1.24341
0.344525
1.09152
1.06356
0.677947
1.03014
1.34329
1.19411
1.5206
1.26199
1.25629
1.22372
1.00663
1.25246
1.31428
1.63942
1.60667
0.861315
1.26626
0.980971
0.762717
2.34991
1.10691
1.1455
1.29467
1.04473
1.29695
1.27915
1.05817
0.999951
1.66069
1.23036
1.53708
1.62921
1.18188
1.08036
2.0666
1.04801
1.50948
1.0291
0.953428
0.511965
1.91893
0.743707
1.53102
0.910154
1.40639
1.30116
0.913162
1.28293
1.22565
0.961659
0.721569
1.16857
1.64811
1.35585
0.987872
2.05409
0.145695
0.905553
1.56669
0.906967
1.64559
0.795476
1.65563
2.12741
0.843112
0.625462
1.63662
1.69383
1.90514
1.71884
1.15911
0.614468
1.18226
1.71287
0.78247
1.01918
1.33602
1.75335
0.724691
1.85812
0.914706
1.11687
1.62117
0.00250075
0.872113
1.60253
1.04391
1.19293
1.73624
0.497205
0.86313
1.11943
0.869742
0.697227
0.739718
1.53914
0.968921
1.80689
0.893695
0.707495
1.58896
1.01082
0.633882
1.31817
0.491609
1.27594
1.67742
1.02656
0.798791
2.19492
1.61865
0.87111
0.690952
0.665347
0.264226
2.30353
0.551913
1.44768
1.66266
1.36242
0.980092
2.22096
1.23454
1.51103
1.07717
2.13952
1.65926
1.16232
1.02445
0.969083
1.22368
1.73108
0.83875
1.15715
0.814325
1.4583
1.93816
1.80771
1.51612
0.593627
1.16745
1.04501
1.49352
0.690594
1.68175
1.37296
0.954218
1.35447
1.41884
0.917216
1.49636
0.776448
1.4676
1.09597
1.51041
1.2441
0.763815
2.12255
1.73911
1.10935
0.0343105
0.507542
1.5011
1.29001
0.5393
0.846697
0.908269
1.05091
1.35883
1.02836
1.0497
0.452525
1.63466
1.38893
1.09739
1.85956
0.474468
1.60403
1.2184
1.00114
0.938988
1.18822
1.20265
1.5424
1.53297
0.611964
0.784096
0.313423
1.61118
1.74493
1.07136
1.14359
0.986846
1.10334
0.84108
1.83039
1.32339
0.850623
1.3274
1.30986
1.89758
0.977859
1.48065
1.27302
0.866947
1.33992
0.895449
1.35442
1.05315
0.735909
0.786534
2.32611
1.37364
1.21177
0.796253
1.18289
1.374
1.62587
0.964349
0.883163
1.55554
1.37512
0.944177
1.68964
1.11732
1.22631
1.3374
1.04325
1.03748
1.78168
0.311843
1.09117
1.91471
0.920179
1.63936
0.745753
2.0799
0.797029
1.98229
0.895457
0.50118
1.89711
0.940799
0.392355
1.84066
0.892095
1.34939
1.16865
0.542017
1.28372
0.713836
1.37099
1.64051
1.34483
0.172128
0.488145
1.60901
1.38752
0.931873
1.08883
0.344179
0.708297
1.61177
0.635462
0.781833
1.44218
1.62623
0.834936
1.41201
1.87066
1.1752
1.29274
1.2604
0.583187
1.03688
1.97832
1.37752
0.867487
0.761293
1.30664
1.37343
0.854315
1.42094
0.847298
1.05882
0.794451
1.85422
1.63293
1.07027
0.618741
1.79174
0.347031
0.93289
1.31873
2.0585
2.00226
1.22519
1.20628
1.693
2.01279
1.4246
1.19076
1.2936
0.966453
1.37475
1.672
1.60757
0.594972
0.731729
0.666331
1.33153
0.640384
0.834418
0.947101
0.971147
1.92328
1.62327
1.34252
0.880621
2.0282
1.37672
0.2962
2.48788
1.50283
0.549292
0.465119
2.01575
1.03219
1.52925
1.81709
1.12556
0.805473
0.407781
0.696269
1.53537
1.62921
0.758254
1.15447
1.20541
1.19873
1.12663
1.0318
1.09581
1.35603
1.56184
1.22876
0.620497
1.72357
1.0369
1.27988
1.32645
0.759755
1.41386
1.68558
1.32497
1.23261
1.58625
0.90605
0.830623
1.39313
0.853082
2.09952
1.41191
0.565751
1.05893
1.11615
0.881358
1.53835
0.970364
1.42964
1.14474
0.863214
0.823824
1.96031
1.41656
0.717032
1.8103
1.71026
1.43582
0.889275
1.41616
1.13353
0.98911
1.74896
1.54352
1.06559
1.58191
1.20821
0.908423
1.2739
2.29016
1.09224
1.41905
0.939369
0.772079
1.16154
1.73852
1.60965
1.97181
0.637501
1.74448
1.24047
1.93803
1.25562
1.73361
1.14616
0.619075
1.19297
0.67279
2.50371
1.17397
1.2037
1.00758
1.10698
1.67542
0.724929
1.20273
1.44234
1.47709
2.1854
1.20223
1.32996
1.88054
1.31601
1.34804
1.66803
1.28133
1.25804
1.04865
1.5108
1.29941
0.340755
0.981231
0.961935
1.16497
1.10484
1.93493
1.04974
0.988862
2.00906
1.17434
1.4286
0.62325
0.871994
1.03912
0.868137
0.80357
0.502496
1.64252
1.79222
1.43156
1.22442
1.21931
1.21233
1.65343
1.44989