# vtk DataFile Version 3.0
2D-vertex
ASCII
DATASET UNSTRUCTURED_GRID

POINTS 1758 float
0.854073 -6.07687 0
3.30531 -5.80458 0
3.66866 -4.84841 0
2.6174 -3.80889 0
0.341114 -3.71979 0
-0.341037 -5.22208 0
4.20037 -4.80014 0
4.75104 -3.92992 0
3.78107 -2.44511 0
2.73947 -2.78779 0
1.5334 -1.56276 0
-0.168473 -1.12678 0
-0.902094 -2.41882 0
-1.06057 -2.46192 0
-1.53765 -4.13562 0
-1.0083 -5.00559 0
5.3263 -4.07062 0
6.11815 -3.16473 0
4.24362 -1.68706 0
3.97239 -1.76207 0
3.07261 -0.829521 0
2.00622 -0.944681 0
1.2613 2.66102 0
0.41003 2.61451 0
-0.36486 0.715656 0
-1.55456 -0.223364 0
-1.42758 -2.12001 0
-2.71551 -2.44088 0
-3.20227 -3.47894 0
-2.88474 -4.18142 0
7.18675 -3.1214 0
7.79053 -2.37305 0
7.57164 -1.06845 0
5.3269 0.0274869 0
5.7799 0.622273 0
3.39638 1.88359 0
2.59591 3.14958 0
1.70947 3.28243 0
0.715095 6.46442 0
-0.861216 6.46475 0
-0.480078 3.40107 0
-1.95853 2.42397 0
-2.97564 0.854587 0
-3.93665 0.868386 0
-4.64228 -0.55034 0
-6.04693 -0.886897 0
-6.30959 -1.95027 0
-4.75947 -3.27676 0
7.97961 -0.419104 0
7.60631 0.601938 0
6.84543 0.993613 0
6.03932 3.03196 0
3.65778 4.14712 0
3.55919 5.02506 0
2.07112 6.61638 0
2.58795 7.33647 0
-1.84271 7.83582 0
-1.72262 6.89595 0
-2.94666 5.51885 0
-2.57651 3.37062 0
-4.21276 3.6448 0
-5.57234 2.30388 0
-7.46241 0.784382 0
-7.30923 0.248322 0
8.50921 1.04741 0
8.50913 1.04991 0
6.95297 3.04514 0
7.34087 4.26937 0
6.02171 5.49128 0
6.20531 6.18954 0
5.35947 7.18371 0
5.05128 7.7115 0
-2.55908 10.1475 0
-2.83542 9.76285 0
-5.96024 6.76128 0
-5.28375 5.98828 0
-5.99037 4.59899 0
-5.90407 4.43425 0
-8.45424 1.28491 0
-8.29519 0.926092 0
10.0231 1.41937 0
10.3023 2.395 0
9.46649 3.3473 0
10.6057 3.81912 0
10.2342 5.33749 0
10.3911 6.06225 0
9.33828 10.6646 0
10.2045 12.7933 0
-9.45365 11.7727 0
-9.45351 11.7702 0
-9.92278 5.87952 0
-9.62135 5.35547 0
-9.95732 4.71701 0
-9.19859 3.62726 0
-9.98691 2.35767 0
-9.50792 1.37532 0
4.28356 -7.62424 0
5.471 -7.02941 0
6.29677 -6.58867 0
8.58837 -4.89476 0
9.82089 -3.40172 0
11.0516 -1.00442 0
11.1417 -0.82064 0
11.7956 0.293986 0
12.4846 2.26407 0
12.6551 3.06972 0
12.6379 6.60987 0
12.7508 13.3933 0
-13.0249 12.2604 0
-12.4927 5.82051 0
-12.3971 4.52847 0
-11.9873 1.97302 0
-11.0793 0.0433456 0
-10.1939 -1.04458 0
-9.56583 -1.76159 0
-8.61098 -3.07778 0
-6.60934 -5.16025 0
-4.48167 -6.49533 0
-2.34001 -7.41732 0
0.695206 -8.12347 0
12.4097 8.10763 0
8.32986 8.07278 0
-12.7685 8.33169 0
-9.87884 9.14533 0
-0.103885 0.386565 0
1.18989 0.528507 0
-1.70438 2.3997 0
-0.89955 0.690995 0
4.6467 2.13104 0
5.01379 3.06849 0
0.374221 8.08075 0
0.182124 6.93743 0
-1.02234 4.74068 0
-2.19654 4.41371 0
6.03828 3.03422 0
5.1213 4.97932 0
4.12801 5.44134 0
4.08535 6.82179 0
2.01687 8.37552 0
2.015 8.37386 0
-2.29868 8.02994 0
-3.85532 6.19584 0
-3.40194 5.52232 0
-4.34957 4.22907 0
1.67404 -2.1971 0
0.258655 -3.24598 0
6.74104 -0.859278 0
5.71001 -2.44632 0
5.32482 0.028875 0
3.27491 0.759773 0
-8.79454 7.53324 0
-5.78183 7.46295 0
3.27242 0.759731 0
1.81842 1.38319 0
-9.20522 3.56018 0
-7.78588 2.97204 0
-0.373386 -5.23999 0
-0.691946 -7.93206 0
14.2167 27.9858 0
17.3699 26.7128 0
1.65607 -5.70304 0
1.7122 -4.24953 0
2.55304 5.36843 0
1.41422 4.30743 0
8.17966 7.6009 0
5.35953 7.18622 0
7.89251 18.4859 0
-0.179301 10.0641 0
-2.31322 -4.42172 0
-2.92664 -7.19368 0
-4.04606 -1.45683 0
-4.90102 -2.65833 0
-5.14613 -6.13345 0
-4.15405 -3.6569 0
0.482631 4.74497 0
-0.414015 4.28613 0
9.44147 3.1957 0
7.89018 2.33372 0
5.95367 -3.70414 0
7.74678 -5.62435 0
2.25542 -8.13584 0
2.21523 -6.11413 0
-5.85457 -2.56452 0
-7.38971 -4.48467 0
-5.14773 1.21394 0
-6.44194 -0.0589878 0
7.83388 -0.923666 0
10.3581 -2.49059 0
-12.2568 3.36232 0
-9.22113 3.58883 0
12.8315 5.12967 0
10.758 4.84546 0
-2.52477 -0.0699035 0
-3.39378 -1.44929 0
-9.12236 -2.33087 0
-6.41528 -0.624412 0
-3.40032 3.15691 0
-4.10912 1.15789 0
-6.63423 3.1763 0
-6.19565 2.38076 0
8.29478 4.48038 0
8.47986 4.97758 0
-0.93164 9.88183 0
-0.656686 8.71306 0
12.4137 8.11688 0
9.69774 9.26901 0
9.44768 11.5487 0
1.66659 8.9762 0
7.80999 6.2224 0
8.98361 6.98558 0
-7.13418 4.68185 0
-7.48518 5.43353 0
-2.36415 12.2178 0
0.531935 11.4163 0
-9.81023 9.64852 0
-4.02679 9.57534 0
8.98216 6.98764 0
12.4544 7.64198 0
-10.5763 10.8097 0
-13.1007 11.2752 0
-12.5479 6.81919 0
-9.06155 7.08344 0
12.0048 16.1071 0
9.51857 14.2461 0
7.97437 8.5125 0
5.84259 8.60837 0
-9.0616 7.08092 0
-7.18153 6.40588 0
1.91005 11.9837 0
3.69513 10.3601 0
-4.30146 7.95668 0
-3.54078 7.32973 0
4.38473 10.1351 0
3.55248 8.529 0
12.6684 9.82293 0
9.87756 9.81901 0
-2.97943 11.7695 0
-4.44491 10.5398 0
-13.2611 23.6149 0
-0.183561 13.079 0
-6.36923 7.99836 0
-4.30788 9.76404 0
-12.6259 7.54851 0
-9.24475 8.1223 0
5.2163 14.3038 0
7.5299 12.3011 0
-1.35052 11.8216 0
-0.769633 10.0876 0
-9.99012 15.0531 0
-13.2882 14.0436 0
18.0863 31.9286 0
1.7886 13.1337 0
-2.96617 14.5809 0
-9.92813 15.4822 0
-10.5407 10.128 0
-12.9882 9.37987 0
-6.41167 11.8052 0
-5.85329 10.7281 0
-6.24376 8.76879 0
-7.02402 9.68896 0
12.8073 11.5599 0
10.192 12.1435 0
-10.8006 16.5109 0
-13.8648 16.3752 0
5.58767 9.72088 0
4.40516 10.0658 0
9.51216 13.4339 0
7.55588 12.8682 0
3.47172 11.5566 0
5.95061 13.6134 0
-2.19506 13.8112 0
-0.795325 14.1278 0
13.2414 18.0608 0
10.3471 19.2814 0
-0.131909 13.0692 0
0.73582 13.7693 0
11.0543 21.0213 0
3.30995 13.7272 0
12.7222 10.6742 0
9.60659 11.039 0
-8.25718 11.2853 0
-8.28282 10.4047 0
-9.13745 8.47395 0
-7.02778 9.30134 0
-9.61444 14.7067 0
-5.95916 13.6931 0
20.5038 35.4901 0
22.7083 35.3627 0
1.33957 11.3389 0
2.20363 9.80071 0
-3.90861 13.4538 0
-3.76397 12.1358 0
-13.1264 13.3144 0
-9.82402 13.9923 0
-0.639261 15.7964 0
-0.641408 15.7951 0
7.18701 10.6453 0
6.71631 11.5607 0
8.1893 9.02497 0
7.07227 10.3819 0
-10.7377 15.9783 0
-13.5071 14.7904 0
-2.78407 14.5847 0
-1.78753 16.1208 0
1.02124 14.9928 0
2.48201 15.0146 0
5.69777 11.6963 0
5.36081 12.3789 0
-7.14697 14.9819 0
-6.88287 15.5336 0
-8.85374 12.5617 0
-6.18021 12.7783 0
3.29184 13.6768 0
4.14582 12.4171 0
-10.1073 18.5282 0
-3.83825 15.7929 0
13.7068 18.9417 0
11.1617 20.1538 0
-16.3933 22.4801 0
-13.772 22.7332 0
7.54521 14.6546 0
6.7893 13.7163 0
11.9875 16.204 0
8.0161 17.5188 0
3.13865 16.3958 0
4.81675 17.0089 0
0.523694 17.9052 0
2.52887 16.8511 0
-1.08115 24.409 0
-3.63769 22.743 0
-3.08093 21.0454 0
-4.30191 17.785 0
-6.01345 12.5489 0
-3.96407 12.0116 0
-9.33379 17.4666 0
-7.8557 16.4211 0
6.56836 21.8856 0
6.05079 18.8414 0
-13.0293 12.6202 0
-9.16353 13.0268 0
-9.09782 13.1925 0
-6.892 14.2019 0
-0.653661 18.1929 0
-0.390957 17.844 0
13.7565 27.4007 0
1.67229 21.6706 0
16.3443 23.7424 0
14.091 24.4206 0
-14.8251 18.1351 0
-11.9684 19.0117 0
-5.17393 14.0737 0
-5.01816 15.4636 0
6.92387 15.5571 0
5.82297 15.5433 0
0.712476 15.4857 0
1.31386 16.5873 0
9.70874 13.8991 0
12.5715 14.3803 0
11.9853 16.1713 0
7.53036 14.9959 0
-11.6337 20.0338 0
-4.28775 18.3127 0
-2.3599 17.2127 0
-3.44204 17.062 0
2.8973 21.9278 0
3.52117 21.1771 0
-5.5351 15.8987 0
-5.43286 17.1769 0
3.16306 15.7413 0
5.2136 14.9037 0
-2.01155 20.9847 0
-0.553243 22.5246 0
1.8155 27.7976 0
11.4853 27.9152 0
-19.5403 36.9867 0
-21.0966 36.0679 0
-21.1585 47.6958 0
-2.60294 23.9207 0
-13.9593 16.545 0
-11.7619 18.6919 0
-1.87982 18.1114 0
-3.34354 19.042 0
-7.04131 18.6931 0
-5.5953 19.1336 0
12.0602 23.8255 0
10.8296 27.0859 0
4.00958 19.362 0
5.48875 19.6274 0
10.2986 19.4567 0
7.35308 20.5846 0
12.2317 16.5777 0
10.1592 19.0568 0
-13.3488 22.0023 0
-3.70382 20.3241 0
15.4033 22.0264 0
13.6448 23.7445 0
1.58746 18.9308 0
2.74611 18.1714 0
-15.5168 19.5301 0
-13.3817 20.9299 0
-1.91737 26.126 0
3.43042 23.2574 0
-0.0284884 19.7688 0
1.2558 20.0809 0
-7.84439 16.6164 0
-6.49186 17.6222 0
7.14702 16.7626 0
5.61914 17.6314 0
-1.50844 20.1821 0
-2.29193 18.8666 0
11.981 16.1832 0
7.32146 16.2616 0
-2.69451 23.3855 0
-1.46282 22.3019 0
-5.55098 19.8699 0
-4.59676 20.564 0
-4.40446 22.8648 0
-5.05636 21.9052 0
-13.8709 16.3833 0
-10.0076 18.0993 0
4.50938 23.2453 0
5.13154 21.9434 0
-0.373101 28.941 0
21.876 58.3478 0
-7.80839 19.575 0
-7.54758 20.7581 0
11.3887 71.938 0
11.7175 73.5093 0
-9.91632 25.6135 0
-8.04295 28.291 0
8.48526 18.9033 0
7.2097 20.2494 0
14.1595 19.7631 0
11.4543 21.2877 0
4.79177 21.3231 0
5.67576 20.0618 0
1.65337 19.7337 0
3.19947 20.2145 0
2.82525 23.9405 0
4.77121 27.6986 0
3.78746 18.5358 0
4.93243 17.4314 0
1.23382 22.1241 0
1.59174 23.5605 0
12.0256 16.2906 0
8.46051 18.7746 0
-6.99975 34.2646 0
-4.71602 30.5448 0
-13.777 24.9901 0
-16.7362 24.3532 0
-0.453306 20.2855 0
0.0934245 21.8465 0
-7.01236 20.9516 0
-6.70268 21.8976 0
-9.34721 17.8279 0
-7.04192 18.6907 0
7.82708 24.122 0
8.73014 22.2397 0
-16.1685 21.2968 0
-13.6216 21.5854 0
-7.13105 22.5463 0
-7.11493 24.1993 0
4.76396 32.0664 0
8.30277 30.0362 0
-14.2398 26.7899 0
-9.7437 26.7097 0
7.71498 24.7628 0
5.20244 26.4145 0
2.13876 27.4775 0
1.12108 25.5143 0
-4.66319 24.6938 0
-4.48387 24.834 0
20.2285 34.5057 0
22.1129 33.4402 0
-0.266017 23.6823 0
0.965642 24.1069 0
-9.13066 21.4602 0
-9.28064 21.8304 0
6.66545 36.5686 0
13.3204 44.3399 0
-3.23546 24.6576 0
-2.69352 25.9631 0
13.8602 25.0001 0
11.4639 25.6002 0
-20.2866 40.8645 0
-22.33 39.9546 0
-18.53 39.1723 0
-8.40026 33.2891 0
8.99689 21.5599 0
8.53261 20.7076 0
-10.248 23.7268 0
-8.71487 22.6071 0
11.8109 23.4576 0
9.42592 23.5427 0
-1.901 36.2651 0
-0.586486 30.6434 0
-9.42782 19.4206 0
-9.94354 20.321 0
16.7809 24.99 0
14.3461 25.5915 0
14.5659 20.4217 0
12.2067 22.2419 0
16.7292 30.3033 0
12.9141 31.592 0
-1.8285 28.8854 0
-1.50296 27.203 0
-16.1107 31.2511 0
-18.2195 29.9911 0
2.98264 25.1454 0
1.8704 25.8803 0
7.41837 29.2063 0
6.48609 26.0779 0
5.06964 23.8043 0
4.18231 25.1188 0
-6.03989 27.7539 0
-5.45219 28.5591 0
7.06098 22.5488 0
6.84982 23.2128 0
5.66958 29.3897 0
6.3452 32.0432 0
-13.7453 25.0922 0
-10.5996 25.3286 0
18.3208 31.2144 0
20.56 30.3552 0
-8.57351 24.9921 0
-5.84007 27.0823 0
-14.6005 33.8331 0
-10.5551 31.493 0
3.32026 31.5319 0
2.90835 31.8329 0
-16.5661 23.5075 0
-13.436 23.8926 0
-16.994 25.5247 0
[...]
CELL_DATA 2637
SCALARS current_Length float
LOOKUP_TABLE default
0.884846
1.02287
1.47843
1.46986
1.64991
1.46933
0.533901
1.02981
1.77355
1.09652
1.02837
1.21823
1.75683
1.48578
0.480937
0.164229
1.74037
1.01836
0.0369729
0.592214
0.563924
0.826257
0.281416
0.709331
1.29586
1.07259
0.778193
1.06092
0.852534
2.05088
0.42001
0.535258
1.90089
0.501604
1.32729
1.14652
0.770905
0.826656
1.06948
0.961543
1.32284
0.85653
2.02809
0.00249755
1.27457
1.60176
1.49783
0.896339
0.766166
1.06667
0.712602
0.887523
1.18784
1.58167
1.87016
0.982268
0.961111
1.58452
1.20138
1.44441
1.09533
0.634428
0.714871
0.525187
1.08714
0.855779
1.12838
2.19195
1.73269
1.45693
0.883462
1.06313
1.36451
0.886362
1.1851
0.947508
0.963302
1.84246
1.11014
1.1305
0.851081
1.90958
0.336984
0.628026
0.557518
0.566053
1.00682
0.0025004
1.42522
0.00248864
1.28421
1.79812
0.704873
0.722001
1.3053
1.58339
0.00251522
1.70725
0.473654
0.495571
1.20603
1.02721
0.4553
1.55867
0.185982
0.60007
1.4545
0.392491
0.844751
1.5584
1.01478
1.17563
0.97697
1.23307
1.03758
1.60502
0.741554
1.01
1.19606
0.46064
1.52757
0.00250691
1.46922
0.873725
0.604556
2.1376
0.721461
1.32786
2.31818
0.0445505
1.0929
1.05755
2.06595
1.32811
2.56596
0.936024
2.69859
1.11381
2.26038
2.27607
1.64002
3.12723
0.204699
3.22795
1.29228
2.09959
2.18625
0.823487
2.18206
2.0675
2.31261
0.467787
2.6161
3.60444
1.07096
2.57058
1.29557
2.44702
1.17456
2.03705
2.05998
1.40271
2.73653
0.953196
3.02192
0.721622
2.56275
2.64
1.7573
2.81147
0.627816
2.75497
1.4003
2.05276
1.56026
1.93604
2.08708
0.746976
2.13262
1.03218
0.0100793
0.565445
4.08
0.796057
1.0002
3.00203
1.51473
1.68425
1.30153
0.255311
1.12476
1.88876
1.88694
1.02619
1.00676
1.20937
1.14542
1.15935
1.73158
1.33566
1.21888
0.914763
1.03579
2.15041
1.09548
1.32452
1.3811
0.69536
1.66675
0.00250184
1.81413
1.44343
1.42588
0.811895
1.56799
1.60328
0.649741
1.42532
1.76166
1.66918
1.6513
1.89254
0.747809
1.13036
2.17631
0.52308
0.723997
2.46951
0.00249825
1.394
1.58202
1.43425
1.81469
1.53637
0.676801
1.72658
2.71086
0.943277
1.81743
3.40041
0.694012
1.00675
1.4546
1.33777
1.02923
1.55648
0.495208
0.60905
2.85045
0.637134
0.5908
1.87571
0.619985
1.70465
2.83903
1.08499
0.958154
1.47463
0.756612
0.968269
2.66787
1.73509
0.759388
1.00723
0.153646
1.17664
1.77469
0.72657
1.74139
2.62726
2.09167
1.13318
2.02211
0.764429
1.86302
2.45838
1.16973
0.920126
1.8153
0.299552
1.05769
2.97099
1.41518
0.0327731
3.04407
1.4928
0.718651
2.09291
1.02858
0.652326
1.63031
0.9052
0.452307
3.20004
0.947679
1.04012
2.12097
1.16963
2.03792
0.908429
1.62996
1.79087
0.530533
1.64899
1.4752
1.20068
1.72495
0.578644
2.95023
0.952768
2.1426
2.06009
1.41362
1.68332
1.39993
1.1468
1.27196
0.829594
1.6755
1.52787
0.0525814
0.507854
1.6418
0.787816
0.00251366
1.0483
3.53337
1.47756
0.988153
2.56698
1.00021
0.0025217
3.49639
0.0671025
2.0152
3.10559
0.555718
1.14134
2.13393
1.47817
1.01866
1.99758
0.860933
1.59293
1.61901
1.56054
1.17671
0.985747
0.725365
1.54326
1.75753
0.852947
1.00288
2.79081
0.761274
1.42091
0.865844
0.510977
1.71549
1.67439
0.794795
0.338554
0.780584
0.733469
0.74141
3.42952
1.99163
2.03991
0.567731
1.08829
0.261884
1.82872
0.433615
0.778182
3.44912
0.852382
1.15642
1.38698
0.182141
0.949425
1.31686
0.682627
1.89866
2.55935
1.91736
1.44804
1.21324
2.17673
1.56539
0.387633
1.8342
0.64991
2.67956
1.01896
0.862696
3.0672
1.62511
0.0722325
1.2318
0.395731
1.00789
2.03644
1.21721
1.14322
1.21559
1.60235
1.21417
1.43511
0.996311
0.181872
3.1412
1.78121
1.22975
1.11492
0.48059
0.053598
2.12673
0.88983
0.533909
3.13691
1.29087
1.70432
0.880975
0.367656
0.947781
2.26612
0.744536
0.941169
2.48276
1.02221
2.0126
2.20815
0.81134
0.983987
1.76423
0.872589
0.235506
1.32595
0.700916
1.08028
3.37121
1.64341
1.0711
0.0025044
2.15135
1.10004
1.0293
1.52805
0.287339
1.75755
0.536345
1.62469
3.01345
0.972299
1.19149
1.83098
1.25636
1.53068
1.46094
1.02752
1.3681
0.7613
0.820618
1.49312
0.611646
0.991173
0.283607
2.68229
1.59833
1.09309
1.52187
0.440357
1.39636
1.32947
0.937922
0.874103
2.81893
1.2044
0.844574
2.63355
0.341625
0.84498
1.2049
0.0946378
0.974996
4.18334
0.654941
0.883464
1.7866
0.916695
0.76102
1.53661
1.22724
0.776377
1.59823
1.78658
1.1216
1.19305
0.843569
1.54829
2.11865
1.75069
2.27518
1.71499
1.43798
0.715233
1.54537
0.359805
0.558865
3.88714
0.17824
1.06255
2.42578
1.2328
2.06259
0.436758
0.744442
1.09209
2.32871
1.32186
0.623812
2.35317
1.81055
0.380664
2.98819
1.40901
1.22499
1.39866
0.809005
1.77776
1.10099
0.581671
1.24332
1.25503
0.504964
1.0032
2.90297
0.0126596
0.826281
4.60737
1.07549
0.52797
1.71442
1.01895
1.12344
1.09258
1.2517
1.01498
0.976034
0.675648
1.28405
1.28227
0.995913
0.599908
2.21503
1.06018
0.937015
0.936454
1.45646
0.650532
0.195721
0.693679
1.20352
1.80734
0.877502
0.542985
1.87397
0.184265
1.66271
3.07208
1.22887
0.95306
0.860335
0.00250597
1.54386
1.51162
1.58671
1.05719
1.81386
0.855589
0.966288
1.50279
1.10944
1.51933
2.16415
1.79417
0.292781
3.23124
0.498227
1.3317
1.41773
1.957
0.810052
2.45846
1.4777
1.33807
1.38535
0.923915
1.42824
2.55305
1.35026
1.43251
1.41596
1.69541
0.527822
1.32165
0.195578
1.1488
1.68551
1.15205
1.28465
1.75766
0.947203
1.06614
1.53114
0.0218087
0.530418
4.66016
1.1412
1.42694
1.64048
0.737604
0.924623
1.17998
0.74032
0.462016
1.16014
0.0101567
0.713964
4.22731
1.07903
0.707262
1.44291
1.45292
0.846344
1.43452
1.1688
0.569122
1.21155
1.69091
2.46861
1.60532
1.47961
0.208765
1.67934
1.68099
0.364605
1.85445
0.773903
0.706684
3.10527
1.27896
0.472944
1.54023
0.805561
1.176
1.61913
0.912598
0.690418
1.21522
1.10325
0.438065
1.59075
0.630761
1.29069
1.48036
0.353359
0.131107
4.34512
0.488015
1.50361
1.86938
1.47518
1.07835
3.02696
0.66885
1.17369
1.65405
1.81817
1.64634
0.995381
0.361591
1.20179
2.46144
0.791464
0.82614
1.10058
1.88316
0.698023
2.56324
0.777413
1.66817
0.901411
1.15448
1.21277
0.665918
0.858883
1.10973
2.34075
0.442895
1.35454
1.14767
0.454932
1.3368
0.833963
0.751953
1.26081
0.227635
0.948124
1.26425
2.16479
1.19273
0.830964
1.30279
1.73176
1.58499
0.399491
1.11746
0.602487
1.19648
0.971137
0.793047
1.41358
0.765368
0.731821
2.47032
0.918447
1.97998
2.23685
0.0938773
0.92238
0.692659
0.730288
1.18592
0.970557
0.928606
0.960899
1.02306
0.444326
1.70055
1.9873
1.46323
1.56932
1.25129
1.62677
1.39949
1.03762
1.1432
1.14608
2.50798
1.80002
0.391231
2.97977
0.75168
1.44969
1.11038
1.2752
1.15394
0.859491
0.99802
1.25492
2.45661
0.436015
1.61954
1.3331
1.25245
1.32704
0.946332
1.87589
1.64911
0.348941
0.70062
1.14031
0.996879
1.69754
1.3348
0.696749
1.75839
1.73484
0.303389
0.106862
0.687878
2.22508
0.875725
1.90811
2.39835
1.29697
1.21122
1.72425
0.965929
1.44564
1.7513
1.53949
1.44497
0.510219
1.04182
0.328204
3.15365
1.19951
1.21458
2.4786
1.04071
0.874692
1.0061
1.52288
1.61489
0.487093
1.38168
1.39859
0.92819
0.72022
1.21192
1.97969
0.610149
1.14738
1.1212
0.00250002
1.62591
1.37838
0.800799
0.788178
1.54795
0.975953
0.833451
2.67555
1.69945
0.574562
1.44468
0.771428
0.542616
2.20494
0.111541
1.46167
1.93368
1.03768
1.89179
0.0304195
2.39377
2.34429
0.854684
0.901838
1.07884
1.08846
0.774166
1.11468
1.50324
0.633733
0.499718
3.44931
1.04599
1.19526
0.900263
1.47122
2.27096
1.70587
0.0100442
1.00515
3.10865
0.6413
1.1608
2.19396
1.81192
1.67315
0.850832
1.83052
1.59913
0.972921
0.728016
1.06026
1.49885
0.485686
1.07665
2.47755
0.195317
1.60453
0.358861
1.22224
0.480728
2.73815
1.11617
1.11578
1.04345
0.916656
1.35684
1.07914
0.467392
0.700578
0.639014
1.45642
0.48764
1.06257
0.678251
0.654218
3.2019
1.0918
0.501215
1.27387
1.20759
0.969731
1.87892
1.03687
1.45896
0.981746
0.0100432
2.03176
2.87587
0.865399
1.09529
2.34701
0.74753
1.06055
1.95657
0.911511
1.29571
1.90229
0.497442
1.78286
2.81646
0.842535
1.4542
1.57247
0.940823
1.44277
0.287948
0.188532
0.979217
2.45874
0.269353
1.17203
0.748865
1.03457
1.1554
1.41974
1.78232
1.57716
1.23897
1.03364
1.38107
1.04714
0.18543
1.03665
2.02915
1.10145
1.96077
1.37773
0.144068
0.928379
1.50143
0.00285254
0.38512
0.949459
1.3219
0.772874
0.745815
1.19737
0.620533
1.80474
1.18876
0.935585
1.30575
0.639932
1.16079
2.6542
1.12213
0.654768
2.78775
1.44903
1.46136
1.37124
0.679514
1.42022
0.84675
1.9391
1.53482
1.02868
1.42121
0.89446
1.41476
1.43597
2.05402
1.1653
1.40948
0.489363
0.86304
1.33218
0.611679
0.913563
0.9174
1.45424
1.86464
0.764884
1.12763
2.64598
1.48022
0.791028
1.91487
1.78193
1.41922
0.601775
1.1427
0.938787
1.25291
0.703948
0.884985
1.1354
1.96839
1.81437
0.101484
2.03551
2.12516
1.60761
1.1245
1.7101
1.18684
0.29446
1.3025
1.5975
1.62416
1.85211
1.03299
0.630715
0.352969
1.0977
1.43545
0.905126
2.11864
0.896943
0.00250111
3.67173
1.20497
1.74371
1.50685
1.47027
0.334031
1.35354
1.78471
1.22294
1.12808
0.737736
0.985659
1.02521
1.95485
0.715944
2.55506
0.913584
0.0102644
3.05357
0.749636
0.838706
0.570632
0.953768
0.770868
0.85221
0.175125
1.16301
2.10776
2.01754
1.3306
0.384751
0.649868
1.33169
1.74619
1.53931
1.29899
1.36068
0.866925
1.61908
1.608
0.692901
1.40822
1.41702
0.952362
0.611771
1.26779
1.3728
1.48244
0.885038
0.20291
1.41339
1.27082
1.03922
1.00895
1.55717
1.5573
0.704432
1.18964
2.37399
1.598
1.55756
0.594845
1.29047
2.00771
0.7943
0.86826
1.74139
1.98887
1.67014
1.19331
1.18717
0.570158
0.783972
1.30179
0.997655
0.86569
1.46275
1.57149
1.09552
1.21621
1.43592
0.894932
1.06384
1.91227
1.29692
1.23965
0.650371
1.04756
0.815444
1.80555
1.28951
0.730336
0.842725
1.52844
1.1309
1.04922
2.35217
0.682071
1.8467
1.89826
1.2286
1.01173
1.69714
0.642258
0.588866
1.48846
0.839596
1.03557
1.78515
0.336851
0.988926
3.5058
1.4963
1.65871
0.968546
1.02867
0.920416
2.54548
1.24295
1.23743
1.00264
1.40368
1.16203
0.839912
0.857006
1.41472
0.905194
1.55287
0.741984
2.08717
1.5014
0.615797
1.36357
0.646246
1.36275
0.678196
1.50146
1.39067
1.05231
0.910059
0.813028
0.642181
1.11658
0.503872
1.31703
0.727201
1.20859
1.48104
0.117408
0.624474
4.08826
1.53143
1.60404
1.69526
0.925891
0.497117
1.69641
1.90467
1.32459
1.22486
1.56068
1.22312
1.8066
0.83063
1.56348
0.82191
0.874975
1.3081
1.80848
1.61561
0.770738
1.19697
1.21235
0.639303
0.820119
1.26641
0.738031
2.0751
1.14313
0.316816
1.3947
1.58444
1.14837
1.38222
0.874368
1.32718
1.57087
1.31717
1.2195
1.08634
0.552236
1.26192
1.88369
0.866442
1.06195
2.54723
1.19428
0.694971
2.62471
0.958739
0.0803126
3.85554
1.10986
0.207974
1.74697
1.03776
0.556468
1.50455
0.60039
1.01592
2.90035
0.909672
0.563215
0.617479
1.33855
1.64352
1.23397
0.775205
0.817455
2.22381
1.14154
0.929355
1.65388
0.626489
0.548363
1.73555
1.30469
0.835619
1.40291
1.53379
1.08884
1.73633
1.1077
1.21899
1.15863
1.61439
1.07527
0.964209
0.778044
0.770684
1.94323
1.24012
0.846953
0.623137
1.56608
1.45049
1.53898
1.15552
0.738814
0.777552
0.485545
0.424321
2.39456
0.836323
0.777598
0.904144
0.657787
0.6237
1.1614
0.699888
1.32882
1.12593
0.536531
1.10662
1.40637
0.966318
0.937515
0.681766
0.740077
1.4237
1.59857
0.874334
1.72362
0.986917
1.42777
1.36585
1.29621
1.98726
1.60058
0.669504
1.03778
1.9683
1.7037
1.07796
1.36837
0.743739
0.394356
0.759474
1.95851
1.17566
1.02093
1.31646
0.637103
1.57594
2.27584
1.16988
2.08087
2.11261
1.41482
1.23079
2.34254
2.13762
1.44195
1.91943
1.09138
1.24875
1.07026
1.12188
0.868104
1.36231
1.41578
0.975542
1.41435
1.54272
0.629875
1.27625
1.14318
0.528305
1.53271
1.56149
1.49548
0.867187
1.17307
0.627739
1.6734
1.3385
1.36755
1.4554
1.11047
1.15725
0.847061
0.00941675
1.00101
1.46625
0.761357
0.841639
2.02478
1.39504
0.907856
1.74777
0.698438
1.59587
1.98422
1.73424
0.784447
1.16919
1.35368
1.27802
1.2076
0.825736
1.75724
1.42794
0.666834
1.25825
2.61625
1.01809
0.782548
2.72204
1.30318
0.978688
0.96132
1.53904
1.42711
0.632387
0.795583
1.0874
0.843472
1.50561
0.488368
0.94875
2.06896
0.787679
1.61511
2.26576
2.3685
0.765792
0.649111
1.25854
1.38708
1.22495
1.37597
1.40539
0.912842
1.05066
1.49237
1.46113
0.2835
1.69175
0.748925
1.1102
0.661382
0.732593
0.00256215
1.47586
0.939867
1.60153
1.89036
0.881014
0.407647
0.786342
1.57921
1.20369
1.83202
0.767306
1.00455
1.77612
0.340239
0.924079
1.26068
0.663384
1.49705
1.28191
1.15699
0.962891
1.46462
1.31578
1.36221
0.952764
0.561825
1.43218
0.492667
1.23354
0.543378
1.03754
1.81991
1.24135
1.4944
0.791129
1.11271
2.49755
1.29757
0.958204
1.00442
1.06196
1.10034
1.92155
0.670024
1.41459
1.75965
1.18067
0.260208
1.73674
2.14467
1.27234
0.409861
0.997543
1.38081
1.15312
1.56792
1.57307
1.03483
0.712378
1.57509
1.36134
1.86736
0.00250864
1.95824
0.993305
1.4671
1.525
1.48053
0.96655
1.04942
1.07072
1.40133
0.886468
0.640388
0.843022
3.05833
1.45435
1.5452
1.43849
1.15189
1.43505
1.52191
2.19522
1.32454
0.637361
0.908365
1.56424
1.57624
0.680461
0.598414
1.95325
0.866283
0.727865
1.418
1.36816
1.44494
1.70897
0.976262
1.168
0.228315
0.240827
1.00728
1.78238
1.52797
0.550406
0.973035
1.46288
1.12124
1.39522
0.985535
0.982483
0.79787
1.46507
1.18044
1.65478
0.592949
0.0169631
0.924366
1.75918
1.32501
0.910687
1.45528
0.785706
1.15539
1.98485
0.998598
2.23402
1.33867
0.572423
0.312773
1.33702
0.481835
2.04951
1.01311
1.69534
0.644625
0.984643
1.97327
1.04185
1.72066
0.849045
1.70039
0.505383
0.946181
1.24055
0.664469
1.07014
1.60532
0.449355
1.18364
1.69326
1.38308
0.716523
1.20908
1.57411
0.689836
0.988175
1.11571
1.35975
0.889509
1.056
1.85294
0.933487
1.34126
1.93484
1.31438
1.94782
1.71742
1.49391
0.876433
0.856705
1.57823
0.595533
0.392475
2.49265
1.67756
0.905914
1.1205
1.28064
1.3841
0.987959
0.915841
1.01051
1.46953
1.52703
1.74205
1.24553
1.67543
1.02562
1.73584
0.216897
0.0511138
1.45493
1.06405
1.04994
1.02175
0.389008
0.790027
1.13959
1.11676
0.765065
1.54534
1.92807
0.821033
1.73933
1.21683
0.913434
1.45131
1.51035
1.05233
2.24522
0.87049
1.05264
2.05753
1.36944
1.24441
0.573042
1.47865
0.568768
1.15011
0.987536
0.762197
1.90378
0.408229
0.113108
2.0612
0.994212
0.640739
0.982958
1.61988
1.56699
1.50309
0.461004
0.684213
1.74155
0.86517
1.16527
1.4208
0.756365
1.02715
0.671431
0.780845
0.663566
1.99169
1.73407
0.910741
1.30652
0.924801
1.38476
0.366423
1.46715
0.886507
2.06672
1.93242
0.687086
1.03688
0.687448
1.26981
2.47571
1.16318
0.379212
1.86039
1.05299
0.56766
1.29253
2.23621
1.2803
2.00612
0.939078
0.377654
1.09818
1.49508
1.43935
0.759652
1.80153
2.04977
0.879376
1.6016
0.716486
0.904687
1.32157
1.25236
1.45637
0.833497
1.31555
1.68454
1.5308
1.32631
0.817635
0.975769
0.886584
1.35068
0.493998
0.911248
1.09834
1.01918
1.68252
1.05712
0.204754
1.19352
1.3377
0.937297
1.52526
1.40913
0.0925923
1.42244
1.78542
1.63206
0.998842
1.46246
1.4501
1.73645
0.973611
1.52388
1.67754
1.45861
1.44752
0.135336
1.94074
2.15442
1.32341
1.92057
1.44329
1.52125
1.27637
0.280196
1.00972
1.26144
1.69536
1.11728
0.724008
1.19353
0.931955
1.38611
0.721234
1.34145
1.63866
1.00483
1.41378
1.36237
1.55206
1.79642
0.972329
0.691992
1.07422
1.37958
1.50578
0.905043
2.03459
0.774171
0.908408
2.00514
1.25956
1.49729
0.954723
0.000519333
1.22851
1.59983
0.409879
0.496653
1.66424
1.02516
1.45585
1.795
1.43821
1.35174
1.57517
1.31567
1.15873
1.53883
1.09656
1.02265
1.31341
1.55788
0.986424
0.738065
1.5597
1.67824
1.50825
2.0709
1.28893
1.89736
1.12619
0.218429
1.97166
1.16267
1.69396
0.806348
1.98661
1.24307
1.33335
1.38744
0.656651
1.9593
1.35939
1.41955
0.733893
0.717635
1.14688
1.44163
1.63368
1.18065
1.25233
1.68016
1.39077
1.6214
1.53947
1.69496
1.16187
1.36225
1.5629
1.02424
1.2474
1.35297
0.781627
1.75013
1.03531
1.69231
1.31597
0.932434
1.32109
1.43679
1.43911
1.32014
0.899729
0.881566
1.56694
1.57557
0.588032
0.988857
0.972453
2.01971
1.6822
1.03511
1.20246
1.24583
0.95752
1.1049
0.631188
0.975166
1.41879
1.32342
0.74652
1.21546
1.25623
1.12052
1.3697
0.985523
1.07313
1.1106
1.58623
1.39979
0.749593
2.11786
1.40352
0.891952
0.751112
1.62077
1.21031
0.812927
1.40931
0.348927
0.530318
0.518331
0.536511
1.12774
1.17338
1.32944
1.43188
1.39298
1.22446
1.49765
1.01995
1.32465
0.625905
1.01456
1.4932
0.18731
0.823126
0.476365
1.65699
1.08262
1.35208
1.05978
1.27954
1.98962
0.846752
1.46392
1.36551
0.746936
1.39738
1.62328
1.7026
1.00219
1.54017
1.11706
0.46416
1.04475
1.88855
0.667826
1.26944
2.71254
1.81626
0.809212
0.908407
1.37993
0.669836
1.38103
1.3564
1.53355
0.870605
0.864229
0.629963
1.23474
1.1833
1.06717
1.11622
0.858814
1.3386
1.1891
1.99869
1.17825
1.43268
1.50328
2.03593
1.50686
1.36915
2.01418
1.05541
0.90397
1.03567
2.03039
0.912376
1.60239
1.66786
0.863931
0.933249
1.51112
0.698882
1.06135
1.32624
0.857801
1.74966
1.34475
0.958063
0.591605
0.840829
1.2051
1.30262
1.62589
1.49806
0.621173
1.48102
0.971825
0.731017
1.53341
1.22324
1.0219
1.33076
1.53683
0.700566
1.42038
1.21244
0.978405
1.45625
1.20671
1.9055
1.39097
1.42183
0.919628
1.87578
1.14903
1.47288
0.974536
0.834803
0.552463
1.87443
1.07013
1.58416
1.13008
1.54578
1.26022
0.944729
0.628799
1.29096
1.44023
1.06527
0.778037
2.04761
1.58172
0.576489
2.10246
0.318712
0.747393
1.51383
0.808664
0.851098
1.06527
1.9965
1.54365
0.00250775
0.590398
1.33612
1.80627
2.23055
1.68674
1.09563
0.904161
1.19098
1.4549
0.881269
0.953703
1.44428
1.73979
1.05496
1.71557
0.76817
1.16678
0.464606
0.416847
0.383228
1.07437
1.01748
1.16607
1.76594
0.885652
0.793937
0.674999
1.01724
0.775186
0.599128
1.68407
0.754788
1.78497
1.13706
1.18034
1.21348
0.929775
0.627991
1.31823
0.550384
1.12347
1.75303
1.08334
0.778532
2.17195
1.91668
0.921394
0.763424
0.667768
0.274497
2.32688
0.889205
1.42609
1.53606
1.50006
1.0066
2.06655
1.30677
1.21829
1.00949
2.09423
1.65517
1.16936
0.722809
0.946345
1.3512
0.991825
1.45207
0.514534
0.68693
1.6496
1.28849
1.39026
1.62845
1.29579
1.28679
1.34144
1.06911
0.661801
1.81262
1.35162
1.02636
1.54907
1.64368
0.711691
1.41613
1.04427
1.47141
1.11294
1.48213
1.21855
0.782371
2.2006
1.14969
1.2811
1.58515
0.855608
1.29419
0.857671
1.20612
0.134883
0.673767
1.04326
1.11456
1.26876
0.798564
0.808202
1.69261
1.16914
0.775228
2.18216
0.577291
1.51298
1.13386
1.0381
0.804884
0.963427
1.26691
1.4425
1.53429
1.2601
0.709091
0.85114
1.01582
0.710127
1.22734
1.39427
1.19017
1.21724
1.03844
2.0959
0.955573
0.513869
0.880416
1.23431
1.66124
0.852005
1.76559
1.73515
1.01338
1.09337
0.681342
1.1105
1.17162
0.715292
0.823177
2.338
1.14056
1.18818
1.20389
0.943031
0.658564
1.90072
1.08106
0.702948
1.58492
1.36367
0.941449
1.70736
0.792572
1.00154
1.49914
0.860209
1.76676
1.82531
0.403591
0.992725
1.87856
1.88449
1.63452
0.487723
1.56703
0.761729
1.79001
1.03853
0.679456
1.7738
0.639518
1.09712
1.82368
1.83966
1.37313
1.01691
1.14368
0.650419
1.33171
1.30283
1.451
1.36793
1.23843
0.541322
1.80162
1.15008
0.983288
1.15642
0.437845
0.780429
1.7388
0.872722
0.864966
1.00309
1.39333
1.31884
0.95602
1.26056
1.13958
0.465631
1.84905
0.466048
1.10274
1.70344
1.16589
0.868649
1.17259
1.41392
0.982338
1.32963
0.825139
1.17731
0.989974
0.877445
1.88058
1.51887
1.19582
0.765379
1.15182
0.509967
0.999803
0.898022
1.68561
2.04718
0.859653
1.07297
1.18051
1.8125
1.31935
1.16771
0.779188
1.08326
1.10418
1.89189
1.5285
0.389539
0.998797
0.602759
1.61692
0.650738
0.865257
1.04021
0.633491
1.47066
1.12369
1.07567
0.539056
1.83686
1.2567
0.561023
2.32032
1.44492
0.389227
1.37797
1.73064
0.982268
1.96306
1.72369
1.11999
0.847502
0.438906
0.71365
1.53541
1.22788
0.811676
1.51651
1.22562
1.26791
1.02869
0.624121
1.27088
1.6375
1.06581
0.370112
1.6773
1.62713
1.05927
1.3211
1.0933
0.771814
1.3226
1.49424
1.15278
1.46737
1.3222
1.12531
0.681326
1.80269
0.946458
1.72832
1.10781
0.455814
1.19072
1.06361
0.719906
1.73963
1.07269
0.677056
1.1146
0.933912
0.853271
1.74913
1.28826
1.10875
0.988677
1.55558
1.23517
1.29519
0.929143
1.051
1.6013
1.37136
1.29259
0.968802
1.28843
0.492675
1.56979
1.24246
1.91942
1.30954
1.33997
1.23325
0.994151
1.29712
1.8826
1.47508
1.50621
0.821404
1.83383
0.498795
1.7929
1.89272
1.31913
1.11865
0.86196
1.44139
0.797489
2.10709
1.85238
1.27279
1.18322
1.23945
1.76257
0.746073
0.555696
1.37979
1.54314
2.25139
1.59803
1.7749
1.6227
1.80467
1.11605
1.62155
1.45702
0.905326
1.19817
1.25829
1.55507
0.699823
0.764569
1.76925
0.991323
1.12535
2.03919
1.66914
1.67685
1.36726
1.3867
0.937079
0.290873
0.509824
0.618824
1.30026
1.28257
1.1607
1.56335
1.76197
1.14484
1.37208
1.17961
1.02027
1.87391
0.88213