# vtk DataFile Version 3.0
2D-vertex
ASCII
DATASET UNSTRUCTURED_GRID

POINTS 748 float
0.243685 -3.43515 0
2.6926 -3.29035 0
3.10606 -2.35021 0
2.10649 -1.25499 0
-0.153969 -1.05258 0
-0.908241 -2.5264 0
3.63272 -2.32996 0
4.22821 -1.49127 0
3.33468 0.05038 0
2.28115 -0.236534 0
1.1391 1.05268 0
-0.537639 1.5701 0
-1.33201 0.312924 0
-1.48815 0.278091 0
-2.04423 -1.38178 0
-1.55427 -2.27972 0
4.79592 -1.66396 0
5.62833 -0.806696 0
3.83374 0.781751 0
3.56178 0.72209 0
2.70932 1.70516 0
1.64139 1.64546 0
1.08206 5.27617 0
0.212504 5.27156 0
-0.645686 3.42082 0
-1.8802 2.54078 0
-1.83729 0.634582 0
-3.13446 0.371257 0
-3.66977 -0.653513 0
-3.38314 -1.37142 0
6.69629 -0.823779 0
7.33503 -0.119593 0
7.19455 1.19844 0
5.00747 2.43242 0
5.4907 2.99914 0
3.17951 4.39343 0
2.4537 5.69081 0
1.55999 5.87189 0
0.690569 9.03227 0
-0.916777 9.1083 0
-0.645426 6.10312 0
-2.17883 5.19718 0
-3.25391 3.67832 0
-4.21338 3.72953 0
-4.97553 2.33242 0
-6.39076 2.04801 0
-6.69698 0.984791 0
-5.21001 -0.39234 0
7.63067 1.8091 0
7.31481 2.86282 0
6.57329 3.30557 0
5.8964 5.38363 0
3.57581 6.63712 0
3.52664 7.49193 0
2.1086 9.12237 0
2.66162 9.81752 0
-1.88438 10.4711 0
-1.80914 9.60419 0
-3.0564 8.3094 0
-2.76079 6.17373 0
-4.40131 6.51362 0
-5.7986 5.21955 0
-7.74102 3.75667 0
-7.60514 3.22327 0
8.24366 3.24744 0
8.24368 3.24994 0
6.81518 5.33618 0
7.28111 6.52283 0
6.05609 7.82825 0
6.28544 8.4989 0
5.54759 9.52436 0
5.31595 9.99812 0
-2.61659 12.7552 0
-2.85445 12.467 0
-6.10629 9.67298 0
-5.43631 8.86783 0
-6.1665 7.51924 0
-6.08284 7.34943 0
-8.72208 4.27238 0
-8.57663 3.92147 0
9.78748 3.5132 0
10.1296 4.45499 0
9.35173 5.46039 0
10.5358 5.85317 0
10.2769 7.38166 0
10.4876 8.08767 0
9.84597 12.7668 0
10.9111 14.8605 0
-9.75341 14.7764 0
-9.74549 14.749 0
-10.0946 8.86836 0
-9.80258 8.34495 0
-10.1463 7.71573 0
-9.41157 6.61583 0
-10.2339 5.36798 0
-9.78239 4.38799 0
3.58083 -5.1644 0
4.79107 -4.63465 0
5.62995 -4.24304 0
8.00104 -2.68563 0
9.31358 -1.27052 0
10.6802 1.04226 0
10.7726 1.20434 0
11.4889 2.25932 0
12.3104 4.17109 0
12.5345 4.94749 0
12.7902 8.45945 0
13.5006 15.2094 0
-13.2906 15.2382 0
-12.701 8.83298 0
-12.619 7.56012 0
-12.2563 5.02421 0
-11.393 3.0823 0
-10.5409 1.98171 0
-9.94445 1.26122 0
-9.05519 -0.0588485 0
-7.1471 -2.20664 0
-5.0909 -3.62195 0
-3.00556 -4.63423 0
-0.0159618 -5.4826 0
12.6856 9.98077 0
8.64504 10.2394 0
-12.9764 11.3047 0
-10.0993 12.1247 0
-0.400826 3.08046 0
0.899153 3.15941 0
-1.91148 5.15986 0
-1.18769 3.42099 0
4.44571 4.57061 0
4.8667 5.48512 0
0.402798 10.6075 0
0.16891 9.53946 0
-1.14838 7.44945 0
-2.35056 7.16997 0
5.89548 5.38595 0
5.10648 7.36845 0
4.13828 7.88938 0
4.16847 9.21927 0
2.18278 10.8072 0
2.18071 10.8058 0
-2.424 10.7301 0
-3.98905 9.03579 0
-3.54869 8.33245 0
-4.5193 7.09784 0
1.24873 0.406783 0
-0.213991 -0.56773 0
6.37388 1.45988 0
5.25699 -0.0587124 0
5.00548 2.43393 0
2.99614 3.27987 0
-8.96842 10.4853 0
-5.9174 10.3513 0
2.99364 3.27996 0
1.56986 3.98112 0
-9.42433 6.55918 0
-8.01543 5.94122 0
-0.938311 -2.54129 0
-1.38571 -5.22595 0
13.3971 33.6577 0
15.0085 34.5171 0
1.05776 -3.10334 0
1.18663 -1.6471 0
2.51407 7.89575 0
1.32073 6.88371 0
8.4537 9.75708 0
5.54799 9.52685 0
9.53317 20.5327 0
0.0956965 12.4838 0
-2.83124 -1.63309 0
-3.5706 -4.38837 0
-4.41666 1.40677 0
-5.3257 0.231876 0
-5.72845 -3.23798 0
-4.62894 -0.791686 0
0.387733 7.37656 0
-0.543238 6.95386 0
9.31867 5.32156 0
7.70913 4.56229 0
5.43486 -1.33636 0
7.12822 -3.36073 0
1.53396 -5.57167 0
1.59614 -3.54256 0
-6.27311 0.363029 0
-7.8915 -1.50803 0
-5.41081 4.11915 0
-6.74873 2.88901 0
7.45995 1.32433 0
9.89918 -0.399591 0
-12.4982 6.41042 0
-9.43458 6.57854 0
12.8653 6.98111 0
10.7612 6.85337 0
-2.84098 2.73529 0
-3.76953 1.38834 0
-9.53228 0.695262 0
-6.7419 2.31804 0
-3.59589 5.9916 0
-4.3756 4.02646 0
-6.84202 6.11866 0
-6.42887 5.31661 0
8.26761 6.6692 0
8.48779 7.15085 0
-0.826502 12.3432 0
-0.642034 11.3122 0
12.6903 9.9897 0
10.091 11.3472 0
10.0377 13.6677 0
1.9203 11.313 0
7.91812 8.41747 0
9.17365 9.11278 0
-7.31839 7.62897 0
-7.65471 8.38789 0
-2.28146 14.6077 0
0.829876 13.7531 0
-10.0298 12.6288 0
-4.11509 12.3383 0
9.17242 9.11497 0
12.6922 9.50037 0
-10.818 13.8064 0
-13.3473 14.2352 0
-12.7517 9.81228 0
-9.22507 10.0603 0
13.0752 17.9747 0
10.4059 16.4257 0
8.33272 10.684 0
6.2103 10.9052 0
-9.22511 10.0578 0
-7.33563 9.3452 0
2.36241 14.2566 0
4.10379 12.6294 0
-4.43591 10.7987 0
-3.65373 10.1052 0
4.84634 12.3687 0
3.90361 10.8666 0
13.0855 11.6727 0
10.316 11.8913 0
-2.90749 14.2042 0
-4.59042 13.2952 0
-12.6445 27.9611 0
0.0713558 15.2966 0
-6.5213 10.9225 0
-4.4735 12.5883 0
-12.8293 10.5234 0
-9.43403 11.1029 0
6.17865 16.3415 0
8.24492 14.5288 0
-1.08036 14.0825 0
-0.639184 12.5502 0
-10.569 18.0832 0
-13.5926 17.3294 0
10.8874 38.4268 0
2.31318 15.2915 0
-3.07293 16.7254 0
-10.4821 18.4708 0
-10.7747 13.1155 0
-13.2047 12.3437 0
-6.64395 14.679 0
-6.10116 13.5457 0
-6.39568 11.6238 0
-7.24147 12.5833 0
13.3763 13.3819 0
10.8376 14.2027 0
-11.282 19.7456 0
-14.0591 20.0417 0
6.01487 11.9869 0
4.84753 12.3665 0
10.2958 15.5438 0
8.32032 15.1461 0
3.95052 13.7181 0
6.72644 15.7949 0
-2.08109 15.9302 0
-0.467224 16.2422 0
14.4333 21.2345 0
11.8411 21.9977 0
0.296594 15.2504 0
1.30744 15.9793 0
12.4443 23.8765 0
4.03467 15.8444 0
13.2124 12.5149 0
10.1568 13.1371 0
-8.49238 14.2135 0
-8.53593 13.3497 0
-9.33406 11.4253 0
-7.2496 12.2213 0
-10.1375 17.6307 0
-6.29078 16.3679 0
8.31512 41.4317 0
8.80887 43.0946 0
1.73293 13.6238 0
2.48834 12.1008 0
-3.95204 15.8139 0
-3.89798 14.7374 0
-13.4208 16.4607 0
-10.3567 17.0052 0
-0.0742109 17.6755 0
-0.258337 17.5614 0
7.72524 12.8943 0
7.32856 13.7821 0
8.5909 11.2052 0
7.57349 12.5967 0
-11.2831 19.0865 0
-13.8164 18.284 0
-2.62588 16.7048 0
-1.65961 18.0587 0
1.60961 17.0208 0
3.39204 16.985 0
6.29804 13.9572 0
6.06102 14.4873 0
-7.58892 17.7804 0
-7.38486 18.1368 0
-9.2303 15.4628 0
-6.50212 15.633 0
4.00766 15.7848 0
4.7126 14.5901 0
-10.6806 21.6369 0
-3.87481 18.0503 0
14.8778 22.4732 0
12.7113 23.0785 0
-15.4051 27.7206 0
-13.2824 27.3494 0
8.668 16.9731 0
7.70381 15.9068 0
13.1232 18.6424 0
9.69982 19.7181 0
4.24811 18.2326 0
6.13592 18.9419 0
1.42544 19.4437 0
3.62816 18.6764 0
-0.606409 25.0598 0
-3.34765 23.9062 0
-3.10304 22.2644 0
-4.54684 19.8889 0
-6.27813 15.3129 0
-4.0892 14.6353 0
-9.90749 20.4253 0
-8.38476 19.2235 0
8.07186 23.5675 0
7.52159 20.7354 0
-13.3025 15.6297 0
-9.60669 16.04 0
-9.58491 16.0929 0
-7.37102 17.0301 0
-0.0275327 19.6272 0
0.183493 19.3606 0
13.4528 32.3572 0
2.4337 22.6365 0
16.2417 29.3954 0
14.347 29.1702 0
-14.8477 22.4547 0
-12.2582 22.7118 0
-5.44563 16.6897 0
-5.23816 17.7725 0
8.23829 17.714 0
7.03891 17.6611 0
1.45685 17.2702 0
2.06098 18.3391 0
10.5642 16.0377 0
13.4311 16.1922 0
13.0266 18.2069 0
8.68122 17.282 0
-11.7386 23.5871 0
-4.52299 20.0694 0
-2.0691 18.9694 0
-3.53741 18.8891 0
4.03321 23.1074 0
4.65069 22.4905 0
-5.89101 18.4009 0
-5.71991 19.3973 0
4.25194 17.8086 0
6.21286 16.8441 0
-1.75398 22.0252 0
-0.0496141 23.2788 0
2.1848 28.2515 0
11.4601 31.6125 0
-7.62739 40.016 0
-8.92682 41.5223 0
-2.908 41.6253 0
-2.28661 24.644 0
-14.3 20.6852 0
-12.0279 22.0822 0
-1.70355 19.548 0
-3.53215 20.6366 0
-7.52246 21.1845 0
-5.95007 21.3104 0
13.1246 27.5709 0
11.2712 30.2688 0
5.29552 20.9336 0
6.98759 21.3593 0
11.8053 22.0923 0
8.92308 22.5558 0
13.6125 19.6343 0
11.5145 21.4672 0
-12.9718 26.2606 0
-3.68252 21.7734 0
16.0502 27.2505 0
14.1331 27.962 0
2.58708 20.5402 0
3.78598 19.7634 0
-15.2862 24.3207 0
-13.1311 25.0655 0
-1.38151 26.6823 0
4.34885 24.2612 0
0.461406 20.8903 0
2.17998 21.3575 0
-8.37581 19.2854 0
-7.05608 20.1043 0
8.75582 18.8025 0
7.19916 19.5811 0
-1.34392 21.2588 0
-2.03638 20.2388 0
13.0246 18.2169 0
8.80273 18.6643 0
-2.36571 24.3665 0
-1.20314 23.076 0
-5.82899 21.7788 0
-4.775 22.271 0
-4.37885 24.262 0
-4.98271 23.6332 0
-14.0635 20.0507 0
-10.6551 21.3083 0
5.78128 24.433 0
6.44088 23.3992 0
0.0951274 29.4773 0
2.93812 41.8954 0
-8.25928 22.2376 0
-7.83839 23.2386 0
0.645114 42.937 0
0.127605 44.6063 0
-9.46168 28.9308 0
-6.79262 30.5067 0
10.0773 21.1053 0
8.81751 22.1642 0
15.2611 23.6998 0
12.9031 24.3706 0
6.20222 22.821 0
7.11703 21.7524 0
2.61364 21.0216 0
4.45719 21.7188 0
3.73331 24.8049 0
5.35159 28.4455 0
5.1443 20.2687 0
6.22127 19.2646 0
2.01912 23.0175 0
2.2548 24.2195 0
13.2999 19.0826 0
10.0601 20.8776 0
-4.1411 36.3098 0
-3.33816 31.84 0
-12.8055 29.9131 0
-15.0252 30.3151 0
0.0850267 21.3486 0
0.543966 22.6268 0
-7.18409 23.3217 0
-6.82424 23.9538 0
-9.85804 20.8253 0
-7.5223 21.1819 0
9.12557 26.1091 0
10.2164 24.429 0
-15.5057 26.2716 0
-13.2391 25.9995 0
-7.17931 24.8232 0
-7.00691 26.3648 0
4.15355 32.4926 0
8.0868 31.9374 0
-12.2746 32.0903 0
-8.88856 29.7989 0
8.88931 26.6133 0
5.97247 27.4439 0
2.69037 27.8134 0
1.7249 25.9815 0
-4.44953 25.9797 0
-4.32089 26.0342 0
9.80628 40.6678 0
10.8679 41.7416 0
0.227899 24.2549 0
1.61758 24.7325 0
-9.31928 24.3361 0
-9.39641 24.8639 0
4.19995 36.7502 0
3.48299 40.9108 0
-2.89722 25.529 0
-2.25451 26.6065 0
14.0141 29.5164 0
12.0391 29.2407 0
-5.17078 41.8039 0
-5.50628 43.5041 0
-6.79288 40.2374 0
-4.626 36.1982 0
10.5086 23.9768 0
10.1623 22.9096 0
-10.1399 27.1475 0
-8.86356 25.3033 0
12.9553 26.8513 0
10.7256 25.9787 0
-1.87385 36.9002 0
-0.22126 31.4881 0
-9.88986 22.3577 0
-10.2644 23.4899 0
16.0153 31.1602 0
14.3319 30.7391 0
15.5872 24.7925 0
13.3307 25.6284 0
11.8765 36.9248 0
9.3667 34.7539 0
-1.07473 29.4468 0
-0.901897 27.6764 0
-10.3131 36.6601 0
-12.3542 37.3512 0
3.77256 25.7149 0
2.55228 26.4208 0
7.52348 30.7119 0
7.37943 27.4327 0
6.31962 25.1241 0
5.27258 25.9543 0
-5.18697 29.2977 0
-4.4004 29.8575 0
8.49311 24.4026 0
8.26175 24.8252 0
5.84677 30.3306 0
5.67642 32.956 0
-12.5958 30.1717 0
-10.0264 28.9473 0
11.8237 37.9725 0
13.2114 38.8699 0
-8.29342 27.6941 0
-5.20035 28.5687 0
-9.42401 37.7846 0
-7.12108 34.5054 0
3.14229 31.8896 0
2.31904 32.4662 0
-15.2284 29.0474 0
-12.8054 28.5755 0
-14.6743 31.9309 0
-13.0119 31.4613 0
-1.03567 38.9587 0
[...]
CELL_DATA 1122
SCALARS current_Length float
LOOKUP_TABLE default
0.879101
1.02704
1.48278
1.46651
1.65561
1.46723
0.527048
1.0286
1.78187
1.09189
1.03332
1.21645
1.75476
1.48712
0.488555
0.159981
1.75054
1.02292
0.0335542
0.593401
0.56389
0.835087
0.278435
0.709061
1.30119
1.0696
0.776968
1.06069
0.869567
2.04003
0.419289
0.542008
1.90668
0.498983
1.32363
1.15616
0.773007
0.82616
1.0681
0.950719
1.3255
0.861308
2.02542
0.00249761
1.27854
1.60026
1.4866
0.911868
0.763744
1.03973
0.727574
0.856856
1.1948
1.5788
1.86083
0.980268
0.960843
1.59148
1.19907
1.44352
1.10644
0.634846
0.705066
0.513954
1.10004
0.863649
1.12512
2.18552
1.73018
1.46787
0.856215
1.09012
1.42089
0.888297
1.09911
0.870205
1.02089
1.79782
1.0774
1.13681
0.85473
1.90448
0.338346
0.637705
0.550432
0.57101
1.00534
0.00249981
1.41705
0.00248843
1.27485
1.79019
0.729441
0.708779
1.26333
1.62126
0.00251633
1.658
0.373662
0.598531
1.2672
1.04745
0.492825
1.53358
0.189298
0.596012
1.44608
0.379865
0.851707
1.56609
1.00203
1.18686
0.997304
1.24753
1.02528
1.6347
0.736766
0.963778
1.27386
0.483413
1.36564
0.0285428
1.26635
0.889807
0.599369
2.1483
0.71698
1.32272
2.32548
0.0438165
1.07901
1.0666
2.0739
1.3211
2.57942
0.925787
2.71059
1.10344
2.27351
2.28895
1.63981
3.14451
0.186526
3.25109
1.2752
2.11353
2.19918
0.80809
2.19432
2.06034
2.3325
0.480446
2.6129
3.56716
1.06379
2.60666
1.2755
2.47757
1.15603
2.05133
2.07335
1.39186
2.76064
0.935362
3.0532
0.700132
2.57882
2.65405
1.75392
2.82513
0.616209
2.76585
1.39358
2.06384
1.55248
1.93011
2.08081
0.885507
2.12514
1.02087
0.0100769
0.543325
4.04884
0.795027
1.03669
2.9916
1.51654
1.6861
1.30237
0.269948
1.11997
1.88349
1.8872
1.03468
1.00676
1.26032
1.16817
1.0933
1.67494
1.34034
1.23424
0.921043
1.05508
2.13374
1.09944
1.41247
1.33023
0.569784
1.78895
0.00250168
1.7895
1.45698
1.3794
0.829824
1.58365
1.57046
0.655137
1.42321
1.75762
1.67718
1.65288
1.88509
0.744911
1.12856
2.18015
0.496464
0.70411
2.48586
0.00249823
1.38387
1.58706
1.44028
1.81229
1.53847
0.669199
1.72455
2.72168
0.919515
1.81768
1.82621
0.694813
0.999952
1.46193
1.2919
1.05517
1.56471
0.518866
0.525296
2.91482
0.629732
0.737874
2.02177
0.610794
1.70256
2.85276
1.08127
0.956439
1.48551
0.744241
0.969073
2.68203
1.68318
0.782177
1.02244
0.142706
1.18238
1.77964
0.718027
1.73876
2.63923
2.08699
1.12509
2.03006
0.752501
1.85857
2.47387
1.16673
0.919329
1.81749
0.293741
1.0495
2.98693
1.40716
0.0219036
3.06818
1.48024
0.716706
2.10792
1.02948
0.647392
1.636
0.892359
0.442965
3.22794
0.959798
1.03935
2.11417
1.18675
2.03841
0.902204
1.62374
1.80393
0.529588
1.83689
1.5003
1.04735
1.72877
0.588811
2.9324
0.96233
2.16796
1.98882
1.38884
1.66649
1.43521
1.15711
1.27229
0.830105
1.4779
1.46636
0.229933
0.508901
1.57262
0.716481
0.00251385
1.04553
3.54083
1.4278
1.00457
2.5654
0.980607
0.00252225
3.53537
0.237228
1.82208
3.08624
0.581649
1.09921
2.13392
1.47335
1.00908
2.01938
0.89258
1.69973
1.67692
1.54758
1.12074
1.04536
0.786976
1.72185
1.77219
0.851682
0.993698
2.77818
0.744814
1.53137
1.12487
0.625291
1.67352
1.33563
0.831231
0.437004
0.712462
0.715368
0.773479
3.44437
2.20084
2.15191
0.62189
1.31094
0.279149
1.59451
0.397219
0.980567
3.11615
1.03284
1.03601
1.5838
0.447522
1.01032
1.47672
0.692261
1.89685
2.5496
1.90614
1.5043
1.2566
2.1506
1.49212
0.362101
1.83169
0.661895
2.66806
0.883782
1.28388
2.79288
1.67365
0.00250924
1.2275
0.419046
0.773796
2.01516
1.09949
0.979215
1.35234
1.33759
1.08819
1.64374
1.31604
0.101103
2.70216
1.58942
1.21847
1.24623
0.674232
0.0654725
1.93836
0.882387
0.543854
3.11834
1.36274
1.65873
0.8649
0.337553
1.04222
2.23126
0.662738
0.764662
2.553
1.67546
2.46378
1.73461
0.912266
0.971233
1.70008
0.904335
0.216753
1.07788
0.839353
1.19494
3.11215
1.304
1.37009
0.216625
2.12455
1.18204
0.972412
1.50683
0.33402
1.7238
0.659077
1.77429
2.6574
0.946962
1.48691
1.66336
1.08441
1.30913
1.78278
1.04529
1.46722
0.580665
0.781248
1.54872
0.410754
0.862992
0.390745
2.73349
1.76484
1.15809
1.38715
0.329529
1.517
0.904072
1.28508
0.841419
2.24947
1.45249
1.13226
2.1549
0.309133
0.983757
1.43758
0.474313
0.831439
3.58845
0.424045
1.16184
2.01666
1.24472
0.762435
1.27435
1.55624
1.09086
1.73087
1.65993
1.06995
1.14169
0.731857
1.43079
2.29139
1.53335
2.22831
1.90928
1.63964
1.02784
1.74965
0.391699
0.689139
3.71853
0.0571795
1.26706
2.40409
0.99853
1.70464
0.340012
1.30175
1.15923
2.12729
1.77921
0.480286
1.90803
1.85232
0.670414
2.60226
1.73142
1.39137
1.10252
1.10525
1.5671
1.20054
0.2925
1.60308
1.2278
0.562071
0.985304
2.87103
0.0101806
0.618771
4.44271
1.01792
0.182101
1.47734
0.684389
1.42073
1.4705
1.66739
0.795604
0.872832
0.906115
1.27188
1.01107
1.19068
0.503828
2.18527
1.43177
0.881783
1.17122
1.17026
0.55682
0.239152
0.89336
2.33486
1.98931
1.55211
0.288581
1.82578
0.677157
1.41895
2.66729
1.67788
0.759538
0.766795
0.00251083
1.89118
1.57742
1.08169
1.35688
1.71899
0.68192
0.821211
1.74478
1.33924
1.3222
1.83508
1.79838
0.623049
2.78583
0.373693
1.1467
1.37801
2.15347
1.22694
2.04493
1.59746
1.09836
1.42857
1.05331
1.30156
2.28017
1.36837
1.19618
1.25358
1.35447
0.548506
1.78093
0.0625065
1.51168
1.55315
1.31514
1.19841
1.74056
0.869177
1.54775
1.23288
0.436763
0.145901
4.24553
1.08447
1.18643
1.73692
0.483795
1.20046
1.16326
0.565008
0.788042
0.871788
0.0100588
0.932015
3.63307
1.44269
0.625518
1.22626
1.23723
0.34689
0.884707
1.28534
0.659549
1.08585
1.46039
2.3294
1.74771
1.70125
0.177185
1.60637
1.48207
0.405529
1.64575
1.14029
0.820232
2.45153
1.58633
0.413873
1.40674
0.482108
1.14861
1.97099
0.821245
0.420441
0.91084
1.44927
0.33379
1.47244
0.563019
1.59016
1.22493
0.634216
0.228332
3.70384
0.497579
0.953444
0.992992
1.07837
1.08362
2.25578
0.593071
1.52602
1.35802
2.05349
1.86923
0.727417
0.403043
1.17418
2.36281
0.876039
0.935297
1.32643
1.9632
0.940248
2.28287
0.939111
1.9035
0.617665
0.80607
1.34874
0.736289
0.969114
1.04019
1.93757
0.363909
1.17844
1.18831
0.668975
1.27741
0.936807
0.902962
1.51064
0.139721
0.968142
1.90741
1.51006
1.01477
0.818052
1.46945
1.84322
1.75133
0.533502
1.71974
1.12537
1.15892
1.0752
0.876281
1.25465
1.26341
0.872659
1.99411
0.82424
1.55332
1.73294
0.863384
1.22188
1.07071
0.538382
1.28874
1.12193
0.560103
0.690601
1.24757
0.739207
1.60529
1.7796
1.23889
1.86415
1.17047
1.63499
1.26854
1.19262
1.72261
0.85635
1.73529
1.87199
0.821151
2.40644
1.04068
1.39191
1.11899
1.48105
1.10379
0.911822
0.63229
1.70886
2.15497
0.600086
1.39941
1.40979
1.20159
1.40701
1.08712
1.96501
1.64577
0.113025
0.729074
0.9591
0.965432
1.72349
1.54745
0.481761
1.71952
1.23078
0.171126
0.332946
0.568735
1.78838
1.049
1.84709
1.6526
1.44058
1.37867
1.52128
0.361632
1.23554
1.25623
1.17738
0.505518
1.00508
1.33855
0.635167
2.46847
1.65344
1.35507
1.72745
1.37689
1.80223
1.48811
1.6699
1.59912
0.508027
1.18806
1.27207
1.12567
0.641252
1.22168
1.24038
0.705908
1.28422
0.831131
0.00249938
1.7183
0.8288
0.626821
0.821566
1.63094
1.77033
1.16088
1.82385
1.84236
0.823361
1.44074
0.769608
0.471889
1.82951
0.319239
1.32982
1.65916
1.18041
1.02196
1.6546
2.26957
2.03687
0.94827
0.819866
0.4929
1.34919
0.705385
1.13649
1.42676
0.863729
0.58132
3.01307
1.11332
1.11762
0.770221
1.42015
2.24825
1.87662
0.629457
0.602791
2.55147
0.794122
1.28819
1.6947
1.93794
1.6575
0.934219
1.72546
1.65837
0.894879
0.977649
0.945005
1.33289
0.494254
1.36447
2.14647
0.224765
1.60888
0.548943
1.73752
0.79486
1.89641
1.00842
1.05232
1.13131
1.02064
1.18127
1.0282
0.892158
0.404862
1.30821
1.39065
0.841132
0.349633
1.78541
0.370499
1.96125
1.14802
0.895164
0.278598
0.944194
1.10938
2.02454
1.18028
1.16936
0.995169
1.73336
1.48183
1.60019
1.02706
1.17546
2.13158
0.849481
1.18447
1.92164
0.771863
1.24854
2.06219
1.41186
2.31044
1.63199
1.03051
1.42781
1.40881
1.10806
1.85613
0.971197
0.873318
0.499363
2.29714
1.23195
1.11763
1.20469
1.1492
1.15972
1.14225
1.48739
1.49457
1.4765
0.922129
1.09644
1.2575
0.298384
1.03231
1.93636
0.994199
1.62926
1.52186
0.555607
0.736338
1.3745
0.68907
1.3057
0.939407
1.45418
0.609968
1.00991
1.43703
0.490933
1.77182
1.02924
1.02763
1.16293
1.6406
0.958063
1.6949
1.6637
0.932062
1.86658
1.31113
1.61267
1.50269
1.35398
1.12505
1.41435
1.8894
1.22769
1.26218
1.09018
1.32499
1.3763
1.50565
1.10344
0.735909
2.21301
1.00174
0.725181
1.04425
0.982225
0.927455
0.53535
1.82509
1.7764
0.872686
1.80604
1.70769
1.60908
0.863021
2.10462
1.19342
1.41291
1.12301
0.544606
0.137138
1.76823
1.33047
1.62557
1.33657
1.73074
2.02791
0.830312
1.65374
1.80217
1.89836
1.39595
1.33255
0.999052
1.22894
1.36579
0.774445
0.820254
1.04332
1.24081
1.22419
0.813094
1.37294
1.45425
1.06964
1.89289
1.42229
0.241105
2.59347
0.877423
1.45638
1.42248
1.57398
0.290805
0.881281
0.462049
0.825832
1.51959
1.56498
1.55562
1.13981
1.99306
1.16193
2.06339
0.435765
0.574072
2.01815
1.30889
0.814906
0.792709
1.05098
0.621161
1.81952
0.394894
1.33828
2.08877
1.39693
0.757741
1.23338
0.79956
1.48537
1.59426
0.79973
1.31702
1.20129
0.277333
1.06375
1.79749
1.04011
0.850874
1.46613
1.26014
1.35034
0.501494
1.3434
1.15064
1.28559
1.19623
1.70938
1.57551
0.50362
0.85185
1.55282
1.10695
1.04286
1.22368
0.812052
0.402366
2.46553
0.679307
1.48829
1.68124
1.09955
1.1026
1.74133
1.16055
1.38768
1.59999
0.829852
0.472713
2.1417
0.805016
1.10781
1.26846
1.72333
1.27156
1.3077
1.26295
1.26583
1.45266
1.299
1.88696
1.17793
0.777762
1.06691
1.3833
0.728895
1.14287
1.58143
3.29229
3.27966
3.2807

SCALARS edge_force float
LOOKUP_TABLE default
0.5
0.5
0.5
0.5
0.5
0.5
0.5
0.5
0.5
0.5
0.5
0.5
0.5
0.5
0.5
0.5
0.5
0.5
0.5
0.5
0.5
0.5
0.5
0.5
0.5
0.5
0.5
0.5
0.5
0.5
0.5
0.5
0.5
0.5
0.5
0.5
0.5
0.5
0.5
0.5
0.5
0.5
0.5
0.5
0.5
0.5
0.5
0.5
0.5
0.5
0.5
0.5
0.5
0.5
0.5
0.5
0.5
0.5
0.5
0.5
0.5
0.5
0.5
0.5
0.5
0.5
0.5
0.5
0.5
0.5
0.5
0.5
0.5
0.5
0.5
0.5
0.5
0.5
0.5
0.5
0.5
0.5
0.5
0.5
0.5
0.5
0.5
0.5
0.5
0.5
0.5
0.5
0.5
0.5
0.5
0.5
0.5
0.5
0.5
0.5
0.5
0.5
0.5
0.5
0.5
0.5
0.5
0.5
0.5
0.5
0.5
0.5
0.5
0.5
0.5
0.5
0.5
0.5
0.5
0.5
0.5
0.5
0.5
0.5
0.5
0.5
0.5
0.5
0.5
0.5
0.5
0.5
0.5
2
0.5
2
0.5
2
0.5
0.5
2
0.5
2
0.5
2
0.5
0.5
2
0.5
2
0.5
2
0.5
0.5
2
0.5
2
0.5
2
0.5
0.5
2
0.5
2
0.5
2
0.5
0.5
2
0.5
2
0.5
2
0.5
2
2
2
2
2
2
2
0.5
0.5
2
0.5
0.5
0.5
0.5
0.5
0.5
0.5
0.5
0.5
0.5
0.5
0.5
0.5
0.5
0.5
0.5
0.5
0.5
0.5
0.5
0.5
0.5
0.5
0.5
0.5
0.5
0.5
0.5
0.5
0.5
0.5
0.5
0.5
0.5
0.5
0.5
0.5
0.5
0.5
0.5
0.5
0.5
0.5
0.5
0.5
0.5
0.5
0.5
0.5
0.5
0.5
2
0.5
0.5
2
0.5
0.5
0.5
0.5
0.5
0.5
0.5
0.5
0.5
0.5
0.5
0.5
0.5
0.5
2
0.5
0.5
0.5
0.5
2
0.5
0.5
0.5
0.5
0.5
0.5
0.5
0.5
0.5
2
0.5
2
0.5
0.5
0.5
2
0.5
0.5
0.5
0.5
0.5
2
0.5
2
0.5
0.5
2
0.5
0.5
0.5
0.5
0.5
2
0.5
0.5
0.5
0.5
0.5
0.5
0.5
0.5
0.5
0.5
0.5
0.5
0.5
0.5
2
0.5
0.5
0.5
0.5
0.5
0.5
0.5
0.5
0.5
0.5
0.5
0.5
0.5
0.5
0.5
0.5
0.5
0.5
2
0.5
0.5
2
0.5
2
0.5
0.5
2
0.5
0.5
0.5
0.5
0.5
0.5
0.5
0.5
0.5
0.5
0.5
0.5
0.5
0.5
0.5
0.5
0.5
2
0.5
0.5
0.5
0.5
0.5
0.5
0.5
0.5
0.5
0.5
0.5
2
0.5
0.5
0.5
0.5
0.5
0.5
0.5
0.5
0.5
2
0.5
0.5
0.5
0.5
0.5
0.5
0.5
0.5
2
0.5
0.5
0.5
0.5
0.5
0.5
0.5
2
0.5
0.5
0.5
2
0.5
0.5
0.5
0.5
0.5
0.5
0.5
0.5
0.5
0.5
0.5
0.5
0.5
2
0.5
0.5
0.5
0.5
0.5
0.5
0.5
0.5
2
0.5
0.5
0.5
0.5
0.5
0.5
0.5
0.5
0.5
0.5
0.5
0.5
2
0.5
0.5
0.5
0.5
0.5
0.5
0.5
2
0.5
0.5
0.5
0.5
0.5
0.5
0.5
0.5
0.5
0.5
0.5
0.5
2
0.5
0.5
0.5
0.5
0.5
0.5
0.5
0.5
0.5
0.5
0.5
0.5
0.5
0.5
0.5
0.5
0.5
0.5
0.5
0.5
0.5
0.5
2
0.5
0.5
2
0.5
0.5
0.5
0.5
0.5
2
0.5
0.5
0.5
0.5
0.5
0.5
0.5
0.5
0.5
0.5
0.5
0.5
0.5
0.5
0.5
0.5
0.5
0.5
0.5
0.5
0.5
0.5
0.5
2
0.5
0.5
0.5
0.5
0.5
0.5
0.5
0.5
0.5
0.5
0.5
2
0.5
0.5
2
0.5
0.5
0.5
0.5
0.5
0.5
0.5
0.5
0.5
0.5
0.5
0.5
2
0.5
2
0.5
0.5
0.5
0.5
0.5
0.5
0.5
0.5
0.5
0.5
0.5
0.5
0.5
0.5
0.5
0.5
0.5
0.5
0.5
0.5
0.5
0.5
0.5
0.5
2
0.5
0.5
0.5
0.5
2
0.5
0.5
0.5
0.5
0.5
0.5
0.5
0.5
0.5
0.5
0.5
0.5
0.5
0.5
0.5
0.5
0.5
2
0.5
0.5
0.5
0.5
0.5
2
0.5
0.5
0.5
0.5
0.5
2
0.5
0.5
0.5
0.5
0.5
0.5
0.5
0.5
0.5
0.5
0.5
0.5
0.5
0.5
0.5
0.5
0.5
2
0.5
0.5
0.5
0.5
0.5
0.5
0.5
0.5
0.5
0.5
0.5
2
0.5
0.5
0.5
0.5
0.5
0.5
0.5
0.5
0.5
0.5
0.5
0.5
2
0.5
0.5
0.5
0.5
0.5
0.5
0.5
2
0.5
0.5
0.5
0.5
0.5
0.5
0.5
0.5
0.5
0.5
0.5
0.5
0.5
0.5
0.5
0.5
0.5
2
0.5
0.5
0.5
0.5
0.5
0.5
2
0.5
0.5
0.5
0.5
0.5
0.5
0.5
0.5
0.5
0.5
0.5
0.5
0.5
2
0.5
0.5
0.5
0.5
0.5
0.5
0.5
0.5
0.5
0.5
0.5
0.5
0.5
0.5
0.5
0.5
0.5
0.5
0.5
0.5
0.5
2
0.5
0.5
0.5
0.5
0.5
0.5
0.5
0.5
0.5
0.5
0.5
0.5
0.5
0.5
0.5
0.5
0.5
2
0.5
0.5
0.5
0.5
0.5
0.5
0.5
0.5
0.5
0.5
0.5
0.5
0.5
0.5
0.5
0.5
0.5
0.5
0.5
2
0.5
0.5
2
0.5
0.5
0.5
0.5
0.5
0.5
0.5
0.5
0.5
2
0.5
0.5
0.5
0.5
0.5
0.5
0.5
0.5
0.5
0.5
0.5
0.5
0.5
0.5
0.5
0.5
0.5
0.5
0.5
0.5
0.5
0.5
0.5
2
0.5
0.5
0.5
0.5
0.5
0.5
0.5
0.5
0.5
0.5
2
0.5
0.5
2
0.5
0.5
0.5
0.5
0.5
0.5
0.5
0.5
0.5
0.5
0.5
0.5
0.5
0.5
0.5
0.5
0.5
0.5
0.5
0.5
0.5
0.5
0.5
2
0.5
0.5
0.5
0.5
0.5
0.5
0.5
0.5
0.5
0.5
0.5
0.5
0.5
0.5
0.5
0.5
0.5
0.5
0.5
0.5
0.5
0.5
0.5
2
0.5
0.5
0.5
0.5
0.5
0.5
2
0.5
2
0.5
0.5
0.5
0.5
0.5
0.5
0.5
0.5
0.5
0.5
0.5
0.5
0.5
0.5
0.5
0.5
0.5
0.5
0.5
0.5
2
0.5
0.5
0.5
0.5
0.5
0.5
0.5
0.5
0.5
0.5
0.5
0.5
0.5
0.5
2
0.5
0.5
0.5
0.5
0.5
0.5
0.5
0.5
0.5
0.5
0.5
2
0.5
0.5
0.5
0.5
0.5
0.5
0.5
0.5
0.5
0.5
0.5
0.5
2
0.5
0.5
0.5
0.5
0.5
0.5
0.5
0.5
0.5
0.5
0.5
0.5
0.5
0.5
0.5
0.5
0.5
0.5
0.5
0.5
0.5
0.5
0.5
0.5
0.5
0.5
0.5
0.5
0.5
0.5
0.5
0.5
0.5
0.5
0.5
0.5
0.5
0.5
0.5
0.5
0.5
0.5
0.5
2
0.5
0.5
2
0.5
0.5
0.5
0.5
0.5
0.5
0.5
0.5
0.5
0.5
0.5
0.5
0.5
0.5
0.5
0.5
0.5
0.5
0.5
0.5
0.5
0.5
0.5
0.5
2
0.5
0.5
2
0.5
2
0.5
0.5
0.5
0.5
0.5
0.5
0.5
0.5
0.5
0.5
0.5
0.5
0.5
0.5
0.5
0.5
0.5
0.5
0.5
0.5
0.5
0.5
0.5
0.5
0.5
0.5
0.5
0.5
0.5
0.5
0.5
0.5
2
0.5
0.5
0.5
0.5
0.5
0.5
0.5
0.5
0.5
0.5
0.5
0.5
0.5
0.5
2
0.5
0.5
0.5
2
0.5
0.5
0.5
0.5
0.5
0.5
0.5
0.5
0.5
0.5
0.5
0.5
0.5
0.5
0.5
0.5
0.5
0.5
0.5
0.5
2
0.5
0.5
0.5
0.5
0.5
0.5
0.5
0.5
0.5
0.5
0.5
0.5
0.5
0.5
0.5
0.5
0.5
0.5
0.5
2
0.5
0.5
0.5
2
0.5
0.5
0.5
0.5
0.5
0.5
0.5
0.5
0.5
0.5
0.5
0.5
0.5
0.5
0.5
0.5
0.5
0.5
0.5
0.5
0.5
0.5
0.5
0.5
0.5
0.5
0.5
0.5
0
0
0
