# vtk DataFile Version 2.0
2D-vertex
ASCII
DATASET UNSTRUCTURED_GRID
POINTS 504 float
-0.0455821 -2.49496 0
2.42055 -2.42948 0
2.86361 -1.50886 0
1.90554 -0.384184 0
-0.367797 -0.105199 0
-1.16821 -1.54542 0
3.40109 -1.50671 0
4.02459 -0.689571 0
3.19388 0.86771 0
2.1124 0.614261 0
1.00835 1.92029 0
-0.671142 2.50583 0
-1.50666 1.28094 0
-1.68317 1.24732 0
-2.27932 -0.367789 0
-1.81702 -1.27828 0
4.59297 -0.883746 0
5.46774 -0.0549773 0
3.73894 1.57105 0
3.44129 1.51735 0
2.63619 2.51917 0
1.53755 2.49936 0
1.11409 6.04264 0
0.15198 6.06149 0
-0.716469 4.27886 0
-2.01665 3.48675 0
-2.02991 1.62212 0
-3.35043 1.39264 0
-3.90139 0.405402 0
-3.63342 -0.31856 0
6.5418 -0.111618 0
7.21571 0.579241 0
7.11824 1.89927 0
4.98229 3.17453 0
5.49656 3.72767 0
3.22052 5.15007 0
2.56634 6.40554 0
1.60853 6.62269 0
0.73649 9.61083 0
-0.945526 9.70804 0
-0.685576 6.91224 0
-2.33109 6.08406 0
-3.39668 4.66132 0
-4.40079 4.74055 0
-5.16807 3.41522 0
-6.60177 3.16524 0
-6.92442 2.12878 0
-5.45061 0.709569 0
7.59542 2.50913 0
7.32436 3.55183 0
6.6176 4.00099 0
6.04376 6.06649 0
3.74016 7.3536 0
3.7106 8.12279 0
2.29015 9.68193 0
2.86607 10.3798 0
-1.96199 11.008 0
-1.92457 10.2964 0
-3.14581 9.12507 0
-2.88463 7.08352 0
-4.59164 7.50497 0
-5.97952 6.28766 0
-7.95575 4.92442 0
-7.82905 4.37527 0
8.29438 3.91447 0
8.29459 3.91696 0
6.99557 5.99986 0
7.49348 7.19258 0
6.36434 8.46949 0
6.62291 9.14355 0
6.00421 10.1136 0
5.85839 10.452 0
-2.73091 13.2744 0
-2.9217 13.0867 0
-6.36723 10.7413 0
-5.68826 9.83724 0
-6.41244 8.61913 0
-6.30857 8.39129 0
-8.93271 5.48525 0
-8.78621 5.10853 0
9.8473 4.12252 0
10.2355 5.07061 0
9.52768 6.11475 0
10.7169 6.455 0
10.5576 8.00411 0
10.8238 8.75206 0
10.3451 13.5969 0
11.213 15.9969 0
-9.84797 16.4667 0
-9.80926 16.2435 0
-10.3507 10.197 0
-10.0359 9.60666 0
-10.3768 9.00838 0
-9.63556 7.85571 0
-10.4242 6.62949 0
-9.98178 5.62179 0
3.24125 -4.32795 0
4.47204 -3.84092 0
5.32877 -3.4785 0
7.76669 -2.00615 0
9.13775 -0.637772 0
10.6003 1.61568 0
10.7016 1.77629 0
11.4756 2.81427 0
12.3852 4.69695 0
12.6479 5.4728 0
13.0715 9.0076 0
13.5965 16.4998 0
-12.974 17.1962 0
-12.841 10.2174 0
-12.7782 8.89484 0
-12.4363 6.31823 0
-11.6006 4.35673 0
-10.7659 3.23549 0
-10.1733 2.49046 0
-9.29068 1.13334 0
-7.41875 -1.05542 0
-5.39198 -2.5189 0
-3.33426 -3.58511 0
-0.37119 -4.5245 0
13.0011 10.8257 0
9.25842 10.867 0
-13.0313 13.0007 0
-10.352 13.5312 0
-0.495409 3.95852 0
0.861589 4.00395 0
-1.97175 6.02127 0
-1.33162 4.29643 0
4.53989 5.28644 0
4.9871 6.19321 0
0.446263 11.0715 0
0.218925 10.1312 0
-1.2065 8.19986 0
-2.48755 7.94925 0
6.04307 6.06888 0
5.35543 8.01838 0
4.3992 8.55396 0
4.43177 9.75756 0
2.48148 11.2369 0
2.47936 11.2356 0
-2.64992 11.3816 0
-4.1972 9.94272 0
-3.76476 9.18372 0
-4.69451 8.08429 0
1.09225 1.29709 0
-0.410759 0.360879 0
6.30664 2.18166 0
5.13402 0.6803 0
4.9803 3.17604 0
2.98831 4.05932 0
-9.23728 11.7239 0
-6.16097 11.3514 0
2.98582 4.0593 0
1.54559 4.79969 0
-9.60711 7.78611 0
-8.19098 7.1245 0
-1.20349 -1.56142 0
-1.73331 -4.22419 0
3.70338 31.41 0
4.13037 33.3544 0
0.784666 -2.18844 0
0.960987 -0.749002 0
2.6409 8.56447 0
1.40932 7.54039 0
9.06537 10.3707 0
6.0084 10.1204 0
9.51061 21.9991 0
0.470733 12.7457 0
-3.08132 -0.598273 0
-3.89193 -3.32393 0
-4.62978 2.46606 0
-5.55231 1.33453 0
-6.02244 -2.11843 0
-4.87069 0.291098 0
0.427869 8.08032 0
-0.576459 7.65468 0
9.48031 5.94692 0
7.82143 5.2441 0
5.25432 -0.575315 0
6.86049 -2.65284 0
1.17867 -4.66511 0
1.30878 -2.64579 0
-6.50633 1.48846 0
-8.15188 -0.339053 0
-5.62662 5.17982 0
-6.9638 4.01449 0
7.40096 2.02202 0
9.75834 0.209755 0
-12.6635 7.69491 0
-9.63977 7.84894 0
13.0763 7.49977 0
10.9967 7.47357 0
-3.0135 3.719 0
-3.95655 2.42788 0
-9.75785 1.89884 0
-6.96812 3.45906 0
-3.75426 6.92735 0
-4.5629 5.05483 0
-7.04813 7.264 0
-6.63814 6.40997 0
8.52201 7.31792 0
8.78663 7.85053 0
-0.747106 12.637 0
-0.645279 11.8399 0
13.0048 10.835 0
10.5886 12.1288 0
10.4864 14.6347 0
2.32703 11.5505 0
8.27937 9.03142 0
9.65343 9.8026 0
-7.59508 8.77714 0
-7.92883 9.59872 0
-2.20207 14.8583 0
1.15527 13.9279 0
-10.2175 14.1057 0
-4.28468 13.0787 0
9.65259 9.80497 0
13.0042 10.1626 0
-10.8556 15.5123 0
-13.146 16.1256 0
-12.8641 11.3046 0
-9.48457 11.3441 0
12.9245 19.3348 0
10.5815 17.7908 0
8.92686 11.3236 0
6.83841 11.4817 0
-9.48443 11.3415 0
-7.58989 10.4855 0
2.82423 14.4611 0
4.63626 12.9852 0
-4.68438 11.6972 0
-3.85718 10.8621 0
5.43159 12.7759 0
4.4934 11.2757 0
13.3847 12.6288 0
10.8346 12.7654 0
-2.86701 14.5064 0
-4.81798 14.0704 0
-6.02797 29.1961 0
0.305476 15.3336 0
-6.80603 12.0335 0
-4.7511 13.4464 0
-12.9138 12.0713 0
-9.72728 12.4456 0
6.87443 16.7389 0
8.79589 15.2875 0
-0.819926 14.1643 0
-0.505764 12.868 0
-10.2274 20.068 0
-12.7618 20.2082 0
2.34189 31.5998 0
2.76392 15.3986 0
-3.06712 16.8647 0
-9.9622 20.5137 0
-10.8883 14.654 0
-13.1874 14.1763 0
-6.84773 15.7671 0
-6.41028 14.4997 0
-6.66507 12.6132 0
-7.54553 13.7186 0
13.6119 14.626 0
11.1885 15.1926 0
-10.1319 22.2276 0
-12.1529 23.484 0
6.6016 12.4949 0
5.43334 12.7741 0
10.5783 16.5957 0
8.82669 16.0807 0
4.45668 13.9454 0
7.28323 16.3994 0
-1.96429 15.9424 0
-0.195298 16.2171 0
12.2257 25.4754 0
10.198 24.7937 0
0.677588 15.2603 0
1.7846 16.0523 0
8.97468 27.1231 0
4.62807 16.1111 0
13.4916 13.6255 0
10.6642 14.0276 0
-8.63085 15.5427 0
-8.78577 14.625 0
-9.61511 12.7437 0
-7.58221 13.3592 0
-9.90933 19.4429 0
-6.45019 17.2682 0
0.574338 32.4993 0
0.435619 34.0274 0
2.16999 13.7908 0
2.90442 12.3511 0
-3.97345 16.1586 0
-4.04235 15.3062 0
-12.8365 19.0054 0
-10.3 18.8608 0
0.321378 17.5044 0
0.0315501 17.3452 0
8.31615 13.6045 0
7.89192 14.403 0
9.2036 11.9317 0
8.14853 13.2221 0
-10.4906 21.3649 0
-12.6409 21.5205 0
-2.46189 16.7655 0
-1.43344 17.9793 0
2.04324 16.9904 0
4.0381 17.0487 0
6.90476 14.4929 0
6.68925 14.9032 0
-7.51129 18.9762 0
-7.27346 19.2238 0
-9.39514 16.9302 0
-6.71721 16.7028 0
4.57062 15.9752 0
5.24587 14.9274 0
-9.11137 24.0256 0
-3.67105 18.325 0
11.6518 27.0785 0
10.1356 26.3959 0
-7.7382 30.8018 0
-6.70737 29.199 0
9.2675 18.1148 0
8.25573 16.6505 0
12.5788 21.36 0
10.0349 21.2128 0
4.88969 18.3493 0
6.75174 19.3848 0
1.87981 19.1839 0
4.22461 18.7148 0
-0.016646 25.2653 0
-2.18995 24.1177 0
-2.2587 22.2326 0
-4.11645 20.1792 0
-6.48148 16.2528 0
-4.23604 15.2331 0
-8.99673 22.3379 0
-7.94725 20.5759 0
6.60443 24.6491 0
7.73754 21.5186 0
-12.8998 17.8801 0
-9.72384 17.6812 0
-9.69204 17.7314 0
-7.4609 18.2052 0
0.372644 19.3227 0
0.576816 19.0641 0
4.53149 30.7444 0
2.66925 22.5829 0
7.23717 32.1375 0
6.50534 30.5812 0
-11.0989 27.0774 0
-9.45695 26.0788 0
-5.49715 17.4315 0
-5.16011 18.2841 0
8.96121 18.7356 0
7.74198 18.4164 0
1.97548 17.0899 0
2.52533 18.1928 0
10.8481 17.2244 0
13.4316 17.5749 0
12.7309 19.901 0
9.24487 18.5294 0
-8.61511 26.4282 0
-4.0638 20.3241 0
-1.72554 18.8356 0
-3.28322 18.9624 0
3.92045 23.1171 0
4.65545 22.6088 0
-5.73725 19.1245 0
-5.37229 19.9685 0
4.9246 18.0355 0
6.87557 17.2771 0
-1.10124 21.8559 0
0.489132 23.1982 0
1.30423 28.2272 0
4.16078 28.7729 0
-4.0609 30.8196 0
-4.86732 32.5002 0
-1.77408 31.4311 0
-1.11453 25.1073 0
-11.8273 25.0819 0
-9.79901 24.8969 0
-1.33634 19.3312 0
-2.99916 20.668 0
-6.58911 22.2495 0
-5.12292 21.8834 0
7.05971 28.2095 0
5.02691 28.1073 0
5.59452 21.1341 0
7.04797 21.945 0
9.93064 25.0046 0
8.00654 23.9712 0
12.5005 23.5219 0
10.2636 23.7451 0
-7.40173 28.06 0
-2.92133 21.8577 0
9.05026 30.6853 0
7.56443 29.6143 0
2.9679 20.3699 0
4.24937 19.7228 0
-10.3162 28.3471 0
-8.60049 27.2711 0
0.415441 26.5518 0
4.08124 24.5215 0
0.884071 20.614 0
2.49157 21.1146 0
-7.88743 20.7007 0
-6.49924 21.0549 0
9.38215 19.9954 0
7.7619 20.3194 0
-0.766626 21.0465 0
-1.5984 20.0565 0
12.6632 20.2746 0
9.38364 19.9934 0
-1.39278 24.3694 0
-0.341397 23.071 0
-4.79672 22.4236 0
-3.81188 22.5712 0
-2.84174 24.5762 0
-3.5667 24.2027 0
-12.067 23.7963 0
-9.296 23.6082 0
5.05693 24.9259 0
5.89184 24.3118 0
0.299739 28.4296 0
-0.0264575 31.9165 0
-6.88804 23.5271 0
-6.02583 24.337 0
-1.11739 32.1835 0
-1.52284 33.7277 0
-4.24165 27.9793 0
-2.82586 28.4255 0
9.53297 22.9883 0
8.14894 23.3329 0
10.8565 28.5675 0
8.98982 27.4999 0
5.82235 23.2047 0
7.04035 22.4983 0
2.94895 20.8205 0
4.61305 21.7404 0
3.33107 25.0972 0
2.97403 27.1196 0
5.57898 20.4722 0
6.77645 19.7233 0
2.25728 22.913 0
2.47433 24.7142 0
12.5264 22.4353 0
9.7682 22.45 0
-1.9138 29.0403 0
-0.639596 27.7749 0
-5.46004 30.1386 0
-6.34725 31.7065 0
0.526536 21.0586 0
1.07414 22.5549 0
-5.581 24.228 0
-4.79984 24.892 0
-8.7578 22.7595 0
-6.59067 22.2482 0
5.33307 26.4499 0
6.9849 26.2577 0
-8.96174 29.8478 0
-7.7649 28.0881 0
-4.83613 25.7642 0
-3.81622 26.4569 0
1.87966 29.1036 0
3.44055 28.5587 0
-4.55113 30.0956 0
-3.82457 28.5349 0
4.86362 26.8688 0
3.5906 26.4619 0
1.91925 27.0261 0
1.68346 26.6337 0
-2.91853 26.103 0
-2.23346 26.7058 0
2.17876 32.139 0
2.86951 33.7338 0
0.828215 24.403 0
2.08456 24.9635 0
-6.83846 25.9535 0
-6.53214 26.6582 0
1.25283 30.4437 0
0.379612 30.6046 0
-1.8044 26.5852 0
-0.650643 27.4405 0
5.74376 30.3389 0
5.67746 28.4843 0
-2.66563 31.5646 0
-3.28884 33.1805 0
-3.26668 30.7527 0
-2.41307 29.0402 0
8.02208 26.2736 0
8.71586 24.8189 0
-5.37768 28.0563 0
-5.9876 26.7352 0
7.15973 28.059 0
6.59599 26.7481 0
-1.24295 30.1488 0
-0.151591 29.9918 0
-8.14152 24.2661 0
-7.82292 25.7659 0
5.65339 32.85 0
5.0714 30.9285 0
9.61248 30.0908 0
8.26098 28.1929 0
3.23104 31.1877 0
2.85465 29.1979 0
CELLS 253 1688
5 0 160 161 4 5
6 2 6 7 8 9 3
6 9 144 145 4 161 3
8 15 156 5 4 145 12 13 14
8 7 16 178 17 147 18 19 8
7 144 9 8 19 20 21 10
6 22 23 24 124 125 153
8 25 26 13 12 11 124 24 127
7 14 13 26 27 28 29 168
6 30 31 32 146 147 17
7 18 33 148 149 152 20 19
5 20 152 153 125 21
7 22 37 163 174 175 40 23
5 24 23 40 126 127
5 26 25 192 193 27
7 28 27 193 170 171 47 173
9 148 33 146 32 186 48 49 50 34
5 52 36 35 128 129
6 36 52 53 162 163 37
6 38 54 55 139 130 131
7 40 175 132 133 59 41 126
6 42 41 59 196 197 43
7 44 43 197 184 185 195 45
8 49 64 65 177 66 134 51 50
7 51 134 135 136 53 52 129
6 53 136 137 55 54 162
8 55 137 70 165 71 233 138 139
7 57 56 140 231 141 142 58
7 59 133 58 142 143 60 196
6 61 60 143 77 198 199
5 65 80 81 176 177
6 67 200 201 208 69 68
7 69 208 209 216 164 165 70
5 71 225 264 265 233
8 73 72 236 291 333 237 241 215
5 211 91 92 93 210
8 77 76 210 93 189 154 155 198
5 97 6 2 1 96
5 98 16 7 6 97
5 99 30 17 178 179
4 101 48 186 187
5 102 64 49 48 101
5 103 80 65 64 102
6 176 81 104 105 83 82
4 105 190 191 83
5 217 120 121 164 216
5 122 123 214 254 255
5 110 92 91 90 109
5 93 92 110 188 189
5 113 79 78 95 112
5 114 63 62 79 113
5 114 194 195 185 63
4 173 47 116 172
5 118 15 14 168 169
5 119 0 5 156 157
5 180 181 160 0 119
4 30 99 100 31
4 80 103 104 81
5 249 292 293 284 248
4 94 111 112 95
5 47 171 182 183 116
6 120 204 205 298 224 121
5 122 242 243 282 123
5 124 11 10 21 125
6 126 41 42 192 25 127
5 128 34 50 51 129
6 130 203 56 57 39 131
5 132 39 57 58 133
5 134 66 67 68 135
6 136 135 68 69 70 137
8 138 207 167 247 202 203 130 139
5 140 73 215 230 231
6 142 141 75 76 77 143
5 144 10 11 12 145
4 146 33 18 147
5 148 34 128 35 149
7 150 221 226 227 74 151 240
7 152 149 35 36 37 22 153
5 154 94 95 78 155
4 156 15 118 157
4 357 222 223 356
6 160 181 1 2 3 161
5 162 54 38 174 163
6 164 121 224 225 71 165
7 166 445 430 431 435 387 337
4 168 29 117 169
6 170 44 45 46 182 171
5 172 117 29 28 173
6 174 38 131 39 132 175
6 176 82 200 67 66 177
4 178 16 98 179
4 180 96 1 181
4 182 46 115 183
6 184 61 199 62 63 185
5 186 32 31 100 187
5 188 111 94 154 189
5 190 106 85 84 191
6 192 42 43 44 170 193
5 194 115 46 45 195
5 196 60 61 184 197
6 198 155 78 79 62 199
6 200 82 83 191 84 201
6 202 72 73 140 56 203
4 204 234 235 205
6 206 261 87 266 267 245
5 208 201 84 85 209
6 210 76 75 74 227 211
6 213 274 239 246 247 167
6 214 123 282 283 259 281
5 216 209 85 106 217
5 218 89 88 108 219
5 220 109 90 226 221
5 222 358 359 320 223
5 224 298 299 264 225
5 226 90 91 211 227
5 228 288 289 229 268
6 230 151 74 75 141 231
7 232 229 289 207 138 233 265
5 234 278 279 86 235
7 236 212 270 302 252 290 291
6 253 248 284 308 309 335
6 240 151 230 215 241 258
5 242 220 221 150 243
6 244 277 312 313 307 269
6 246 212 236 72 202 247
5 248 253 300 301 249
8 295 271 239 274 275 304 354 294
6 252 302 303 362 363 315
4 254 218 219 255
5 256 280 281 259 257
6 258 241 237 257 259 283
4 260 107 87 261
5 318 319 238 448 449
7 264 299 296 297 306 232 265
6 223 320 321 267 266 356
6 268 229 232 306 307 313
5 270 212 246 239 271
5 272 316 317 388 273
6 274 213 288 228 251 275
7 276 433 501 492 493 457 488
5 278 260 261 206 279
6 280 89 218 254 214 281
6 282 243 150 240 258 283
5 284 293 340 341 308
4 286 472 473 287
5 288 213 167 207 289
7 290 350 285 311 332 333 291
5 292 338 339 340 293
6 328 377 412 413 371 474
6 296 86 279 206 245 297
6 298 205 235 86 296 299
4 300 262 263 301
5 302 270 271 295 303
6 304 275 251 312 277 305
7 306 297 245 267 321 269 307
7 308 341 285 350 351 366 309
7 310 88 89 280 256 332 311
5 312 251 228 268 313
7 314 419 454 455 382 424 496
5 316 432 433 276 317
5 318 458 459 392 319
8 320 359 352 353 369 244 269 321
5 322 444 445 166 323
5 324 368 369 353 325
5 326 343 294 354 355
6 495 479 423 426 376 494
6 330 329 416 417 415 393
5 332 256 257 237 333
6 334 262 300 253 335 404
6 336 421 434 435 431 389
5 338 108 88 310 339
6 340 339 310 311 285 341
7 303 295 294 343 342 380 362
6 344 158 502 503 463 373
5 346 498 499 482 347
4 348 378 379 349
5 350 290 252 315 351
7 352 411 406 407 441 325 353
7 354 304 305 368 324 327 355
5 356 266 87 107 357
5 358 410 411 352 359
6 360 349 379 314 496 497
7 362 380 409 381 361 331 363
6 364 345 403 436 437 365
6 366 351 315 363 331 367
5 368 305 277 244 369
6 450 451 371 413 370 408
7 438 467 439 468 469 475 443
5 375 374 486 484 485
6 494 376 484 486 487 446
5 378 418 419 314 379
6 380 342 402 450 408 409
7 382 455 405 367 331 361 383
5 384 395 347 482 483
6 386 440 441 407 337 387
5 388 317 276 488 489
4 390 272 273 391
7 392 459 399 360 497 476 477
4 394 346 347 395
5 396 326 355 327 397
5 398 348 349 360 399
5 400 328 474 475 469
7 402 342 343 326 396 436 403
6 404 335 309 366 367 405
5 406 323 166 337 407
6 408 370 330 393 381 409
5 410 322 323 406 411
5 412 329 330 370 413
6 414 383 361 381 393 415
5 490 491 460 461 428
6 418 263 262 334 454 419
6 420 401 364 365 434 421
6 422 372 462 478 479 495
6 424 382 383 414 452 425
5 426 423 286 287 427
6 428 461 470 471 429 465
7 430 391 273 388 489 389 431
4 432 500 501 433
6 434 365 437 386 387 435
6 436 396 397 440 386 437
6 438 401 420 456 466 467
6 440 397 327 324 325 441
6 442 345 364 401 438 443
5 444 390 391 430 445
7 446 487 429 471 480 481 447
5 448 464 374 375 449
6 450 402 403 345 442 451
5 452 414 415 417 453
5 454 334 404 405 455
6 456 420 421 336 457 493
4 458 398 399 459
6 460 453 417 416 470 461
6 462 372 468 439 463 503
6 464 448 238 490 428 465
6 466 385 373 463 439 467
7 468 372 422 447 481 400 469
7 470 416 329 412 377 480 471
6 472 250 502 158 159 473
6 474 371 451 442 443 475
7 476 425 452 453 460 491 477
6 478 250 472 286 423 479
5 480 377 328 400 481
6 482 499 344 373 385 483
5 484 376 426 427 485
6 486 374 464 465 429 487
5 488 457 336 389 489
6 490 238 319 392 477 491
7 492 384 483 385 466 456 493
5 494 446 447 422 495
5 496 424 425 476 497
5 498 159 158 344 499
6 500 394 395 384 492 501
5 502 250 478 462 503
CELL_TYPES 253
7
7
7
7
7
7
7
7
7
7
7
7
7
7
7
7
7
7
7
7
7
7
7
7
7
7
7
7
7
7
7
7
7
7
7
7
7
7
7
7
7
7
7
7
7
7
7
7
7
7
7
7
7
7
7
7
7
7
7
7
7
7
7
7
7
7
7
7
7
7
7
7
7
7
7
7
7
7
7
7
7
7
7
7
7
7
7
7
7
7
7
7
7
7
7
7
7
7
7
7
7
7
7
7
7
7
7
7
7
7
7
7
7
7
7
7
7
7
7
7
7
7
7
7
7
7
7
7
7
7
7
7
7
7
7
7
7
7
7
7
7
7
7
7
7
7
7
7
7
7
7
7
7
7
7
7
7
7
7
7
7
7
7
7
7
7
7
7
7
7
7
7
7
7
7
7
7
7
7
7
7
7
7
7
7
7
7
7
7
7
7
7
7
7
7
7
7
7
7
7
7
7
7
7
7
7
7
7
7
7
7
7
7
7
7
7
7
7
7
7
7
7
7
7
7
7
7
7
7
7
7
7
7
7
7
7
7
7
7
7
7
7
7
7
7
7
7
7
7
7
7
7
7
CELL_DATA 253
SCALARS cell_division_count float
LOOKUP_TABLE default
1
0
1
0
0
0
1
0
0
1
1
1
1
1
1
1
0
1
1
1
1
1
1
0
1
1
1
1
1
1
1
1
2
4
3
1
1
0
0
1
1
0
0
0
1
2
3
0
1
0
0
1
1
1
1
1
0
0
3
0
1
2
3
1
1
1
1
1
1
1
2
2
1
1
1
1
2
1
1
1
3
1
1
2
9
1
1
1
1
1
1
1
1
1
1
1
1
1
1
1
1
1
2
3
5
2
1
3
5
2
2
2
5
3
2
4
2
3
5
5
6
3
3
6
3
4
6
9
3
5
4
4
7
5
6
6
5
4
5
13
5
5
5
7
5
4
6
4
10
5
3
4
6
6
6
7
6
6
11
7
8
7
6
7
8
11
11
6
8
9
4
7
8
11
6
7
7
8
8
3
6
12
10
11
9
7
11
12
8
11
8
11
10
11
9
9
5
13
6
10
7
12
10
10
8
11
6
10
11
13
8
11
10
11
7
10
9
8
9
11
12
9
11
6
11
7
11
12
11
12
8
12
10
10
12
12
10
5
12
13
10
11
11
8
11
9
13
13
11
12
6
8
11
SCALARS cell_time float
LOOKUP_TABLE default
1461
2.22229e+13
1481
4.48239e+13
2.67348e+11
1.25633e+10
1491
2.68224e+09
9.19769e+11
1481
1481
1471
1441
1491
1411
1451
1.22747e+06
1491
1461
1491
1491
1391
1431
25273.4
1491
1491
1491
1491
1491
1381
1441
1381
1341
1081
1231
1331
1471
1.00108e+18
2.94533e+15
1441
1431
106573
2835.76
1547.34
1421
1321
1121
1538.01
1431
4189.01
1806.18
1411
1451
1461
1471
1441
1.12104e+13
22656.3
911
3527.96
1441
1361
1181
1491
1491
1491
1491
1491
1491
1491
1371
1251
1491
1481
1481
1481
1311
1471
1471
1471
611
1461
1461
1321
241
1461
1451
1451
1441
1441
1441
1441
1441
1431
1431
1431
1421
1411
1411
1391
1381
1381
1371
1241
1061
1341
1331
1181
961
1321
1321
1321
611
901
1311
931
1251
1241
971
931
821
1201
1181
811
1181
901
911
601
1121
971
1101
1101
191
911
801
831
1031
811
1001
31
971
971
961
661
91
931
701
681
331
911
901
901
901
891
831
631
821
811
171
241
161
621
211
551
621
31
301
701
691
241
681
661
661
11
21
491
631
351
621
611
341
31
481
241
561
551
181
131
51
41
301
351
471
61
241
41
441
71
421
421
411
81
391
361
351
351
341
331
311
41
301
291
71
281
281
101
241
21
241
241
141
241
231
211
71
191
181
181
171
161
161
161
151
151
141
131
101
91
81
71
71
71
61
51
41
41
41
31
31
31
21
21
11
SCALARS cell_area float
LOOKUP_TABLE default
3.24296
3.30108
3.29432
3.35742
3.35229
3.34481
3.32816
3.37719
3.35
3.28238
3.3381
3.28555
3.38551
3.32057
3.30769
3.33133
3.40062
3.28995
3.34576
3.39271
3.39154
3.34186
3.34124
3.37422
3.36102
3.37636
3.4333
3.40297
3.392
3.33132
3.24924
3.30041
3.34493
3.32526
3.4422
3.25326
3.34879
3.25362
3.26221
3.24973
3.2388
3.28022
3.26382
3.28148
3.22295
3.29128
3.2646
3.26667
3.26187
3.25082
3.27032
3.2756
3.21796
3.25838
3.24578
3.24309
3.21082
3.21933
3.28037
3.19896
3.24775
3.30933
3.27673
3.28227
3.3394
3.2888
3.39418
3.35148
3.28418
3.36052
3.44323
3.35046
3.35776
3.28812
3.24854
3.27738
3.34199
3.35206
3.23446
3.22324
3.23146
3.25959
3.3344
3.32697
3.34345
3.22394
3.29834
3.25363
3.37055
3.29005
3.22566
3.20466
3.21771
3.30607
3.25315
3.24815
3.26171
3.32603
3.2651
3.30245
3.29243
3.26701
3.3942
3.24137
3.29952
3.24636
3.33018
3.38034
3.29248
3.28146
3.26897
3.2758
3.28555
3.29008
3.25084
3.30699
3.35589
3.39682
3.26624
3.41904
3.29477
3.35123
3.2794
3.3331
3.39607
3.27592
3.42607
3.37625
3.22399
3.27759
3.33143
3.21858
3.29668
3.36677
3.3202
3.34086
3.35162
3.26438
3.35588
3.32196
3.26136
3.28532
3.31664
3.27107
3.24291
3.34182
3.38557
3.28081
3.29317
3.3163
3.30212
3.24597
3.35219
3.34289
3.37841
3.37575
3.33936
3.29542
3.33016
3.26648
3.28416
3.39917
3.29533
3.30289
3.34131
3.28035
3.30033
3.32083
3.28865
3.31199
3.28309
3.32235
3.40293
3.2857
3.27787
3.23228
3.34573
3.35836
3.3614
3.25264
3.3007
3.28491
3.39782
3.33315
3.36813
3.30065
3.32192
3.34297
3.30265
3.29101
3.28803
3.36545
3.36867
3.24896
3.32851
3.24521
3.23967
3.31847
3.22774
3.31011
3.26896
3.27062
3.37583
3.33504
3.28885
3.33912
3.29635
3.2745
3.33872
3.26148
3.31351
3.32198
3.27756
3.30792
3.28546
3.29939
3.31984
3.24583
3.32586
3.32857
3.324
3.32429
3.32639
3.28784
3.32298
3.30223
3.33926
3.27125
3.28224
3.30975
3.24026
3.29664
3.302
3.29213
3.31393
3.32241
3.32734
3.322
3.31332
3.31963
3.27008
3.26946
3.28689
3.2974
3.29868
3.26054
3.2935
3.33684
3.26017
3.2733
3.29876
3.30167
3.24935
SCALARS cell_perimeter float
LOOKUP_TABLE default
6.92979
6.93818
6.97513
7.18354
7.11805
6.83085
7.05721
7.56615
6.92843
6.93609
7.38009
6.9963
6.81879
7.1966
7.02702
6.78879
7.17391
6.96532
6.95884
7.14025
6.9133
7.20412
7.21018
7.50515
7.5155
6.93464
8.2172
6.97732
6.85076
7.04293
6.95814
7.00283
8.27958
7.02628
7.02051
7.29175
7.82383
7.51926
7.82393
7.63326
8.27161
8.65749
8.17195
7.73569
7.37434
9.12452
7.72176
7.57618
8.01551
7.63975
8.09948
8.42014
7.7843
8.0761
7.67438
7.21586
7.43314
7.38604
7.6864
7.32323
7.72738
9.12521
8.27349
7.0336
7.08349
7.20182
6.95352
7.01793
7.1244
6.88996
8.05622
7.01755
7.11871
7.09182
7.24448
7.20507
7.8176
7.21279
6.9369
7.87555
7.87054
6.79009
7.00971
8.04387
7.12179
7.98172
6.82305
7.98227
6.98874
6.9922
7.79288
7.31435
7.65244
7.093
7.9307
7.94592
7.33244
6.92023
8.21543
7.13676
7.13844
6.92241
7.22185
7.81064
7.00562
7.00512
6.82608
7.1016
7.21293
8.36499
8.16846
8.39551
8.91914
7.1792
7.23979
7.08591
6.94163
7.78691
7.91283
6.86317
7.53297
7.17149
8.68216
7.31127
7.28998
7.5325
7.0361
6.99813
7.52807
6.98277
7.28568
7.60337
7.14633
7.48832
7.07578
7.22844
7.0852
7.25155
6.85404
6.85871
7.88164
6.82646
7.54468
7.4803
7.36812
7.20109
7.61405
8.1919
6.86758
7.17875
7.15952
7.49301
7.08992
7.29806
6.93403
6.93684
7.84662
7.05422
7.45652
7.24821
7.28364
7.31143
7.84733
7.3559
7.00936
6.79656
7.05104
7.36454
7.20856
6.90479
8.54778
7.85124
7.08087
7.23411
7.15767
7.31326
7.12095
7.11815
7.52731
7.6876
9.09503
6.81684
7.24027
7.04776
6.92296
7.39824
6.90526
6.92622
7.122
7.00809
7.68821
7.02585
7.58793
6.99096
6.90061
6.89313
7.41058
6.82862
7.30844
7.01384
7.19298
6.92841
7.31478
7.106
7.01526
6.86816
8.31229
7.04335
6.96408
6.91355
8.11116
6.81935
6.87759
7.06277
7.07234
6.97654
6.85756
7.45285
6.95904
7.12996
6.90544
7.17584
7.00026
7.73257
7.07083
7.1293
7.09059
7.05104
7.31831
6.95011
7.34361
6.82776
6.81616
6.87745
6.84382
6.96997
6.93942
7.11071
7.00985
6.98999
6.89428
6.9214
7.17066
7.0774
7.05146
6.96466
6.98031
6.94502
6.96516
6.98268
7.23573
7.76251
7.05239
SCALARS cell_frequency_modifier float
LOOKUP_TABLE default
2.61959e+17
2.65061e+14
1.01375e+14
6.78355e+13
2.07394e+13
1.43429e+12
3.21204e+09
9.45779e+10
1.48311e+13
8.40641e+13
1.2581e+11
2.00997e+11
4.65579e+07
1.19011e+09
4.20532e+11
3.36799e+12
7.38416e+10
1.28561e+09
2.75975e+07
247832
3.63052e+07
5.12055e+08
9.96622e+09
2.10253e+09
3.63101e+07
1.46197e+06
169095
268776
9.00385e+06
4.16607e+07
6.07023e+11
2.10433e+07
744903
70412.4
2092.57
6.10126e+08
1.17178e+07
5.63993e+18
1.22533e+18
1.21295e+17
3.63569e+14
9.62579e+12
1.14072e+13
1.086e+10
2.26347e+10
1.1957e+06
819126
2.41799e+08
1.83429e+09
7.2763e+11
2.8702e+12
1.2856e+13
3.61241e+16
6.83657e+17
8.03675e+18
10000
3.6187e+16
2.16482e+12
484.674
1.26425e+11
4.26767e+15
158915
3.2042e+06
1.21472e+12
3.53874e+09
8.57567e+09
155905
2.04879e+06
4.28779e+08
2.0437e+06
27601.4
31821.5
2.07189e+06
1.01416e+13
1.90575e+14
1.78092e+12
91073.2
1.01993e+09
3.1585e+10
4.87833e+18
13360.7
4.50136e+17
4.43155e+06
237202
2.62031
4.92715e+17
8.88149e+11
7.22787e+16
2.31103e+06
8.39469e+08
7.99269e+17
10000
1.00705e+15
2.67136e+09
1.85811e+15
9.31593e+09
2.19422e+09
3.76526e+10
7.54132e+13
4.8426e+08
1.09944e+09
1.01689e+10
19906.5
7.48859e+06
1259.98
9.39984e+08
1.06754e+06
2202.84
15585.8
2.25483e+07
61906.1
3.77756e+07
200.479
130000
9.23544e+07
10343.7
168662
21493
1.59535e+06
311.313
42.428
20164.5
5.17426e+06
478.939
3080.58
1685.39
154.077
45.1424
209688
285612
5549.61
129072
1.20028
5101.96
193.404
3166.12
654.307
166.09
1072.03
0.747309
448917
7050.65
30774.7
7713.13
164.872
11908.7
191.696
1072.61
3.95531
3730.28
24579.4
725.162
137.998
270.648
473.506
32.5689
287.09
3195.21
2.13861
117.971
4.19072
55.6238
10.823
85.102
47.6923
17.9746
4.19325
1259.11
25.0171
2.54179
1180.94
129.863
26.1256
2.67823
581.322
164.545
88.1944
14.1595
56.0686
39414
38.2717
6.91639
9.91946
3.79497
17.9425
299.134
4.56995
0.643609
1.03003
1.73163
6.17111
8.18908
4.483
100
8.14441
158.522
259.238
0.858479
106.675
36.0078
123.909
175.043
8.77759
12.139
27.4273
5.42873
23.1621
441.163
4.48689
124.855
3.28232
2.0079
100.003
3.46343
4.87708
1.23436
1.90422
102.733
3.9429
8.83612
0.961542
24.4323
1.76036
11.0997
0.637565
0.959755
3.9613
346.786
54.3914
1.32244
104.194
2.25355
0.954543
1.58764
0.790868
0.681985
0.987375
0.805862
2.37076
1.18223
117.795
148.207
2.51887
1.59759
1.09884
195.754
1.51665
0.533818
100.487
225.39
1.33635
0.92134
102.852
SCALARS cell_area_modifier float
LOOKUP_TABLE default
100
0.935305
1.36388
0.363767
0.371785
0.407736
0.526535
0.326241
0.391944
5.0099
0.463795
2.95906
0.320051
0.639697
0.789392
0.495593
0.299231
1.86716
0.398112
0.312153
0.316052
0.424853
0.435831
0.337109
0.353599
0.328358
0.290638
0.295733
0.314091
0.500495
100
0.990215
0.404476
0.561598
0.288978
100
0.395004
100
100
100
100
24.0952
100
7.12676
100
1.62701
100
100
100
100
100
100
100
100
100
100
100
100
12.3415
100
100
0.765507
100
5.56044
0.443471
2.01594
0.310239
0.383043
3.8626
0.356087
0.287337
0.388932
0.361171
2.19048
100
100
0.421316
0.37733
100
100
100
100
0.476909
0.537726
0.411048
100
1.12195
100
0.33937
1.80071
100
100
100
0.814815
100
100
100
0.549403
100
0.856176
1.5287
100
0.308349
100
1.03055
100
0.505495
0.322088
1.48387
8.29508
100
100
2.79558
1.73883
100
0.801902
0.366401
0.304636
100
0.294015
1.32808
0.385965
46
0.486071
0.306481
100
0.292317
0.330503
100
100
0.490786
100
1.17401
0.346338
0.647887
0.439618
0.380165
100
0.369074
0.616322
100
3.35099
0.682861
100
100
0.42845
0.318039
9.92157
1.4416
0.692202
0.886165
100
0.374537
0.417836
0.324151
0.334878
0.447392
1.26185
0.510595
100
4.18182
0.301011
1.29412
0.828151
0.432109
16.3226
1.00998
0.63171
2.09959
0.732272
4.55856
0.594595
0.297472
2.64921
506
100
0.401269
0.358611
0.351145
100
0.952919
3.58865
0.302813
0.481446
0.343984
0.971209
0.623921
0.414414
0.84193
1.68106
2.28959
0.348725
0.341661
100
0.521112
100
100
0.673768
100
0.743025
100
100
0.332676
0.472456
1.9387
0.455446
1.23114
100
0.459582
100
0.711674
0.608905
100
0.777266
3.14286
1.05198
0.656291
100
0.555434
0.5158
0.574347
0.567901
0.543502
2.3981
0.580941
0.870912
0.451383
100
6.24691
0.754098
100
1.2019
0.901961
1.57632
0.701803
0.587689
0.532072
0.601665
0.721826
0.664915
100
100
2.51741
1.14739
1.09761
100
1.40166
0.468085
100
100
1.07431
0.91833
100
SCALARS cell_Gaussian_modifier float
LOOKUP_TABLE default
2.61959e+15
2.83395e+14
7.43283e+13
1.86481e+14
5.57833e+13
3.51771e+12
6.10034e+09
2.89902e+11
3.78399e+13
1.67796e+13
2.71263e+11
6.79258e+10
1.45471e+08
1.86043e+09
5.32729e+11
6.79589e+12
2.46771e+11
6.88539e+08
6.9321e+07
793945
1.14871e+08
1.20525e+09
2.28672e+10
6.23694e+09
1.02687e+08
4.45237e+06
581805
908845
2.86664e+07
8.32391e+07
6.07023e+09
2.12512e+07
1.84165e+06
125379
7241.27
6.10126e+06
2.9665e+07
5.63993e+16
1.22533e+16
1.21295e+15
3.63569e+12
3.99489e+11
1.14072e+11
1.52384e+09
2.26347e+08
734908
8191.26
2.41799e+06
1.83429e+07
7.2763e+09
2.8702e+10
1.2856e+11
3.61241e+14
6.83657e+15
8.03675e+16
100
3.6187e+14
2.16482e+10
39.272
1.26425e+09
4.26767e+13
207595
32042
2.18457e+11
7.97964e+09
4.25394e+09
502531
5.34872e+06
1.11008e+08
5.73933e+06
96059.6
81817.7
5.73661e+06
4.62988e+12
1.90575e+12
1.78092e+10
216164
2.70302e+09
3.1585e+08
4.87833e+16
133.607
4.50136e+15
9.29224e+06
441121
6.37472
4.92715e+15
7.91611e+11
7.22787e+14
6.80978e+06
4.66187e+08
7.99269e+15
100
1.00705e+13
3.27849e+09
1.85811e+13
9.31593e+07
2.19422e+07
6.85338e+10
7.54132e+11
5.65608e+08
7.19198e+08
1.01689e+08
64558.5
74885.9
1222.63
9.39984e+06
2.11187e+06
6839.24
10503.4
2.71828e+06
619.061
377756
71.7129
74762.9
923544
12899
460322
70553.2
15953.5
1058.83
31.9468
52244.3
112484
985.327
10051.5
16.8539
527.088
136.587
2096.88
2856.12
11307.6
1290.72
1.02237
14731.1
298.515
7201.99
1721.11
1.6609
2904.65
1.21253
4489.17
2104.05
45067.3
77.1313
1.64872
27794.9
602.743
108.109
2.7437
5389.01
27736.9
7.25162
368.448
647.737
1460.76
97.2563
641.697
2532.18
4.18847
1.17971
1.00213
184.79
8.36326
102.761
110.371
1.10121
4.15182
1993.18
11.9153
3.4711
259.06
218.406
87.8254
1.01095
1.14886
1.64545
219.789
39.4843
159.673
394.14
40.1626
1.9273
32.7577
7.88243
52.1609
308.002
7.32456
1.55306
1.22341
1.03008
2.69529
23.4829
13.1212
1
15.6289
1.58522
2.59238
1.27415
1.06675
48.4612
1.23909
1.75043
26.3848
25.6934
14.1473
11.9196
18.8135
4.41163
9.76299
1.24855
4.61211
3.29756
1.00003
4.45592
1.5518
1.17337
2.90149
1.02733
7.09878
17.1309
1.67415
43.022
3.23892
4.62855
1.09747
1.10201
8.77593
3.46786
8.70692
1.75367
1.04194
1.87499
1.0583
1.00718
1.12691
1.16045
1.85572
1.33939
3.28439
1.77801
1.17795
1.48207
1.00058
1.39237
1.00112
1.95754
1.08203
1.14043
1.00487
2.2539
1.24392
1.00328
1.02852
