# vtk DataFile Version 3.0
2D-vertex
ASCII
DATASET UNSTRUCTURED_GRID

POINTS 516 float
-0.00606837 -2.51867 0
2.45779 -2.44223 0
2.89692 -1.51894 0
1.93339 -0.398217 0
-0.339283 -0.129869 0
-1.13308 -1.57498 0
3.43321 -1.51438 0
4.05314 -0.69447 0
3.21493 0.860419 0
2.13595 0.602408 0
1.02672 1.9048 0
-0.653917 2.48178 0
-1.48388 1.25217 0
-1.65905 1.21793 0
-2.24828 -0.402544 0
-1.78158 -1.31116 0
4.62197 -0.886146 0
5.49183 -0.0539678 0
3.75561 1.56685 0
3.45975 1.51212 0
2.6496 2.51107 0
1.55308 2.48626 0
1.11357 6.03226 0
0.154874 6.04701 0
-0.707342 4.2584 0
-2.00241 3.45734 0
-2.00665 1.59012 0
-3.32515 1.35444 0
-3.87244 0.362448 0
-3.60107 -0.360375 0
6.56561 -0.106077 0
7.23558 0.586347 0
7.13323 1.90639 0
4.99158 3.17587 0
5.50297 3.731 0
3.22207 5.14676 0
2.56184 6.4019 0
1.60595 6.61482 0
0.724363 9.60472 0
-0.957328 9.69287 0
-0.686154 6.89387 0
-2.32513 6.05591 0
-3.38588 4.62466 0
-4.38826 4.69862 0
-5.15056 3.36605 0
-6.58256 3.10857 0
-6.90066 2.06863 0
-5.42167 0.658223 0
7.60625 2.51631 0
7.33056 3.5603 0
6.62109 4.00815 0
6.03872 6.07319 0
3.73174 7.35347 0
3.69959 8.1251 0
2.27521 9.68149 0
2.84925 10.3814 0
-1.97912 10.986 0
-1.93761 10.2748 0
-3.15416 9.09402 0
-2.88363 7.05194 0
-4.5909 7.46255 0
-5.9738 6.2353 0
-7.94319 4.85818 0
-7.81366 4.31123 0
8.29794 3.92545 0
8.29813 3.92794 0
6.98932 6.0089 0
7.48396 7.20138 0
6.34967 8.47817 0
6.60633 9.15173 0
5.98431 10.1225 0
5.83535 10.4621 0
-2.76307 13.2466 0
-2.95238 13.0578 0
-6.38268 10.6844 0
-5.6987 9.78761 0
-6.41603 8.56183 0
-6.31199 8.33747 0
-8.92352 5.411 0
-8.77558 5.03742 0
9.85081 4.13805 0
10.2353 5.0853 0
9.52202 6.12677 0
10.7119 6.47086 0
10.5468 8.01784 0
10.8097 8.76376 0
10.3253 13.6005 0
11.2077 15.9869 0
-9.92483 16.3669 0
-9.88406 16.1478 0
-10.3654 10.1068 0
-10.0483 9.52167 0
-10.3855 8.92063 0
-9.63841 7.77473 0
-10.4224 6.54407 0
-9.97471 5.54118 0
3.28776 -4.33774 0
4.51556 -3.84525 0
5.36958 -3.47939 0
7.79947 -1.99718 0
9.16412 -0.623651 0
10.6168 1.63523 0
10.7164 1.79463 0
11.4851 2.83348 0
12.3881 4.7182 0
12.6478 5.493 0
13.0616 9.02548 0
13.6034 16.4777 0
-13.0704 17.0595 0
-12.8639 10.1091 0
-12.7919 8.7909 0
-12.4346 6.22031 0
-11.5873 4.26488 0
-10.7465 3.14969 0
-10.1511 2.40997 0
-9.26414 1.06107 0
-7.38287 -1.11732 0
-5.35048 -2.57023 0
-3.28886 -3.62616 0
-0.322229 -4.55126 0
12.9893 10.8294 0
9.23352 10.8793 0
-13.078 12.875 0
-10.3952 13.4359 0
-0.484415 3.93818 0
0.869562 3.98938 0
-1.96907 5.99562 0
-1.31943 4.27304 0
4.53861 5.28821 0
4.98279 6.19673 0
0.428816 11.0651 0
0.205481 10.1219 0
-1.21095 8.18061 0
-2.48974 7.92339 0
6.03802 6.07557 0
5.34276 8.02476 0
4.38552 8.55749 0
4.41504 9.76365 0
2.46143 11.2396 0
2.45931 11.2383 0
-2.66902 11.3551 0
-4.20796 9.90343 0
-3.77134 9.14852 0
-4.6969 8.04044 0
1.1137 1.28014 0
-0.384515 0.337824 0
6.32048 2.18629 0
5.15416 0.681966 0
4.98959 3.17738 0
2.99474 4.05425 0
-9.26304 11.6416 0
-6.18097 11.2968 0
2.99224 4.05422 0
1.55098 4.7887 0
-9.61169 7.7071 0
-8.19208 7.05514 0
-1.16777 -1.59093 0
-1.68503 -4.25764 0
4.15104 31.9941 0
4.5098 33.7261 0
0.821927 -2.20853 0
0.991681 -0.766977 0
2.63043 8.56265 0
1.40265 7.53476 0
9.0407 10.3828 0
5.9874 10.1276 0
9.55321 21.9802 0
0.44879 12.7394 0
-3.04884 -0.636878 0
-3.84677 -3.36808 0
-4.6079 2.42072 0
-5.5263 1.28268 0
-5.98177 -2.17342 0
-4.84095 0.243411 0
0.421425 8.06959 0
-0.579975 7.6399 0
9.47579 5.96108 0
7.81995 5.25313 0
5.28072 -0.575378 0
6.8973 -2.64701 0
1.22735 -4.68446 0
1.34814 -2.66347 0
-6.48048 1.43183 0
-8.11854 -0.405349 0
-5.61459 5.13004 0
-6.9472 3.9556 0
7.4144 2.02966 0
9.78075 0.225813 0
-12.67 7.5954 0
-9.64322 7.7669 0
13.0702 7.52003 0
10.9882 7.48783 0
-2.99796 3.68411 0
-3.93615 2.3861 0
-9.73431 1.82304 0
-6.94869 3.39917 0
-3.75195 6.89091 0
-4.55147 5.01104 0
-7.04668 7.20234 0
-6.63281 6.35353 0
8.51187 7.32895 0
8.7739 7.8594 0
-0.771425 12.6205 0
-0.66541 11.8268 0
12.9931 10.8387 0
10.5685 12.135 0
10.4707 14.6331 0
2.3058 11.5538 0
8.26356 9.04209 0
9.63383 9.81228 0
-7.59962 8.71149 0
-7.93797 9.52811 0
-2.24548 14.8284 0
1.12931 13.927 0
-10.2677 14.008 0
-4.317 13.0393 0
9.63298 9.81465 0
12.9926 10.1749 0
-10.9239 15.4028 0
-13.2282 15.9911 0
-12.8957 11.1896 0
-9.50681 11.2607 0
12.956 19.3094 0
10.5901 17.7728 0
8.90346 11.3337 0
6.81391 11.4916 0
-9.50666 11.2582 0
-7.60517 10.4188 0
2.79959 14.4677 0
4.61289 12.9949 0
-4.70563 11.6546 0
-3.87357 10.8269 0
5.40709 12.7864 0
4.46955 11.2842 0
13.3743 12.6264 0
10.8136 12.7674 0
-2.90783 14.4711 0
-4.86038 14.0256 0
-6.26074 29.1474 0
0.265896 15.3217 0
-6.83038 11.9722 0
-4.78768 13.4036 0
-12.9521 11.9524 0
-9.75842 12.3579 0
6.86104 16.7464 0
8.77904 15.2948 0
-0.850381 14.1419 0
-0.528662 12.8557 0
-10.3633 19.9596 0
-12.9059 20.057 0
2.62659 32.0295 0
2.73785 15.403 0
-3.14903 16.8197 0
-10.1069 20.4077 0
-10.9465 14.55 0
-13.2465 14.0438 0
-6.91125 15.7037 0
-6.46067 14.4403 0
-6.69472 12.5524 0
-7.58728 13.6486 0
13.6074 14.6067 0
11.1788 15.1897 0
-10.3097 22.1164 0
-12.3572 23.3374 0
6.57688 12.5057 0
5.40884 12.7846 0
10.5758 16.5901 0
8.81334 16.0826 0
4.43262 13.9539 0
7.26626 16.4077 0
-2.02002 15.9028 0
-0.240626 16.1966 0
12.4843 25.2885 0
10.383 24.7043 0
0.647429 15.2496 0
1.75955 16.0526 0
9.35293 27.0669 0
4.6095 16.1223 0
13.4833 13.6144 0
10.645 14.0291 0
-8.69459 15.4596 0
-8.83892 14.5437 0
-9.64975 12.655 0
-7.62023 13.2908 0
-10.0336 19.3375 0
-6.53626 17.2072 0
0.912417 32.786 0
0.759581 34.3327 0
2.14467 13.7937 0
2.88211 12.3577 0
-4.03915 16.113 0
-4.09911 15.2663 0
-12.9605 18.8584 0
-10.4129 18.7529 0
0.283169 17.4743 0
-0.0256011 17.3031 0
8.29305 13.613 0
7.87067 14.4122 0
9.17943 11.9394 0
8.12521 13.2319 0
-10.6512 21.2506 0
-12.8083 21.3671 0
-2.52768 16.7234 0
-1.52085 17.9371 0
2.0144 16.9871 0
4.02485 17.051 0
6.88277 14.504 0
6.66875 14.9128 0
-7.62623 18.9089 0
-7.39617 19.1558 0
-9.47788 16.8358 0
-6.79521 16.6416 0
4.55039 15.9828 0
5.22322 14.9382 0
-9.31901 23.9397 0
-3.77205 18.2853 0
12.023 26.8842 0
10.4208 26.2881 0
-8.22135 30.6911 0
-7.06522 29.0948 0
9.26181 18.1081 0
8.24451 16.656 0
12.6576 21.2634 0
10.0562 21.18 0
4.88338 18.3611 0
6.75394 19.395 0
1.86359 19.1404 0
4.22628 18.7199 0
-0.381632 25.1221 0
-2.48074 24.0432 0
-2.56595 22.1525 0
-4.28757 20.145 0
-6.55219 16.1906 0
-4.29079 15.1918 0
-9.17532 22.2482 0
-8.09495 20.5044 0
6.76361 24.6999 0
7.76313 21.5401 0
-13.0064 17.7371 0
-9.8172 17.5837 0
-9.7879 17.6314 0
-7.56403 18.136 0
0.294528 19.2602 0
0.512506 18.9952 0
5.03128 31.2973 0
2.56805 22.3097 0
7.93549 32.3242 0
7.15773 30.894 0
-11.3924 26.9281 0
-9.71661 25.9676 0
-5.5884 17.3803 0
-5.26501 18.2264 0
8.94613 18.7304 0
7.73654 18.424 0
1.95839 17.0682 0
2.502 18.1792 0
10.8489 17.2143 0
13.4475 17.5465 0
12.7715 19.8681 0
9.2421 18.5119 0
-8.86927 26.3485 0
-4.23866 20.2863 0
-1.82234 18.7873 0
-3.40897 18.8978 0
4.05381 23.0224 0
4.69629 22.6157 0
-5.8655 19.0776 0
-5.51347 19.9215 0
4.91828 18.0466 0
6.86387 17.2862 0
-1.34594 21.7547 0
0.159512 23.0359 0
1.67167 28.6555 0
4.77526 29.6646 0
-3.50051 31.1326 0
-4.00392 33.2252 0
-1.46639 31.5578 0
-1.54855 24.8801 0
-12.0698 24.923 0
-10.0244 24.7881 0
-1.47596 19.2402 0
-3.23483 20.6177 0
-6.78236 22.2167 0
-5.34856 21.8803 0
7.64004 28.443 0
6.02644 28.7292 0
5.62097 21.168 0
7.08628 21.9734 0
10.1382 24.9179 0
8.11479 23.9666 0
12.6571 23.3455 0
10.3947 23.6861 0
-7.66379 27.9827 0
-3.15841 21.8204 0
9.7105 30.6989 0
8.23782 29.7737 0
2.95514 20.3543 0
4.24566 19.7138 0
-10.653 28.2033 0
-8.88125 27.1678 0
-0.184364 26.2732 0
4.09038 24.4064 0
0.748721 20.4669 0
2.44782 21.0319 0
-8.0363 20.6324 0
-6.66867 21.0053 0
9.38397 19.985 0
7.76904 20.3334 0
-0.990025 20.9143 0
-1.7564 19.9834 0
12.7156 20.2062 0
9.3854 19.983 0
-1.75286 24.2758 0
-0.628685 22.9152 0
-5.02092 22.4379 0
-4.0996 22.5787 0
-3.22053 24.5754 0
-3.83857 24.2632 0
-12.2798 23.6427 0
-9.49567 23.5141 0
5.23057 24.9534 0
5.9924 24.3662 0
0.61571 28.713 0
0.223164 32.1102 0
-7.10961 23.5125 0
-6.23833 24.3583 0
-0.687114 32.3492 0
-1.07954 34.0639 0
-4.47398 28.1278 0
-3.11029 28.7993 0
9.61363 22.9458 0
8.22584 23.3471 0
11.3622 28.3886 0
9.40362 27.4776 0
5.90366 23.2465 0
7.08776 22.5392 0
2.933 20.7357 0
4.67168 21.7422 0
3.56397 24.6859 0
2.88494 27.7901 0
5.60599 20.4855 0
6.78142 19.7472 0
2.07291 22.686 0
2.21722 23.9146 0
12.6393 22.3011 0
9.82219 22.4168 0
-1.75618 29.2933 0
-1.24341 28.3781 0
-5.86494 29.987 0
-6.99647 31.5923 0
0.356039 20.9408 0
0.836909 22.2946 0
-5.84433 24.2681 0
-5.06164 24.9459 0
-8.94193 22.6794 0
-6.78298 22.2143 0
5.73834 26.6583 0
7.25942 26.3167 0
-9.35708 29.7316 0
-8.08743 27.9981 0
-5.1022 25.8913 0
-4.03153 26.6174 0
2.17349 29.5974 0
3.96669 29.3257 0
-4.7053 30.1254 0
-3.93697 28.8992 0
5.52253 26.978 0
3.95118 26.0322 0
2.16904 27.8139 0
1.51666 26.1524 0
-3.27232 26.3027 0
-2.58595 26.841 0
2.48554 32.4507 0
3.16718 34.0913 0
0.511388 24.2808 0
1.33134 24.5704 0
-7.07376 25.9369 0
-6.77853 26.6727 0
1.53621 30.7399 0
0.639324 30.8595 0
-2.37246 26.7587 0
-1.56526 27.2725 0
6.48734 30.7269 0
6.26924 28.8522 0
-2.12645 31.7331 0
-2.64667 33.6601 0
-3.01425 30.9292 0
-2.60636 29.4088 0
8.2955 26.2533 0
8.8829 24.7937 0
-5.61589 28.1638 0
-6.19096 26.7766 0
7.7762 28.194 0
6.98172 26.7517 0
-1.02943 30.257 0
0.0313325 30.0975 0
-8.34655 24.2072 0
-8.06839 25.7192 0
6.22306 33.1661 0
5.67635 31.5069 0
10.2597 30.009 0
8.74156 28.2281 0
3.51965 31.6711 0
3.34372 29.8338 0
0.314473 28.3153 0
0.636149 26.7096 0
-4.52375 30.6638 0
-5.79045 32.3796 0
3.45592 25.3647 0
1.69201 26.2324 0
3.90823 28.6322 0
5.37188 26.9713 0
5.467 25.7472 0
3.75327 25.7655 0
-3.01553 28.4454 0
-1.41201 27.7989 0

CELLS 774 2322
2 160 0
2 1 2
2 2 3
2 161 4
2 4 5
2 5 0
2 2 6
2 6 7
2 7 8
2 8 9
2 3 9
2 9 144
2 10 11
2 11 12
2 145 4
2 12 13
2 13 14
2 15 14
2 5 156
2 7 16
2 17 178
2 147 17
2 19 18
2 19 8
2 20 19
2 21 20
2 10 21
2 153 125
2 23 22
2 24 23
2 24 124
2 127 24
2 26 25
2 26 13
2 27 26
2 28 27
2 29 28
2 14 168
2 30 17
2 30 31
2 32 31
2 32 146
2 18 33
2 33 148
2 128 35
2 20 152
2 35 36
2 37 36
2 22 37
2 37 163
2 38 131
2 175 40
2 40 23
2 126 40
2 42 41
2 25 192
2 43 42
2 43 44
2 193 27
2 45 44
2 46 45
2 47 171
2 173 47
2 48 186
2 48 49
2 49 50
2 34 50
2 50 51
2 52 129
2 36 52
2 52 53
2 53 162
2 54 38
2 55 54
2 139 55
2 57 56
2 39 57
2 58 57
2 59 133
2 41 59
2 59 196
2 61 60
2 197 43
2 199 61
2 62 63
2 195 185
2 49 64
2 64 65
2 177 65
2 51 134
2 67 66
2 68 67
2 53 136
2 69 68
2 70 69
2 55 137
2 165 70
2 233 71
2 73 72
2 140 56
2 215 73
2 74 75
2 58 142
2 76 75
2 77 76
2 60 143
2 77 198
2 78 79
2 79 62
2 65 80
2 80 81
2 81 176
2 67 200
2 82 83
2 83 191
2 69 208
2 84 85
2 164 216
2 71 225
2 86 279
2 158 502
2 88 89
2 290 252
2 254 214
2 90 91
2 91 211
2 91 92
2 92 93
2 93 210
2 189 93
2 94 95
2 95 78
2 96 1
2 96 97
2 97 6
2 97 98
2 16 98
2 179 99
2 99 30
2 31 100
2 187 101
2 101 48
2 101 102
2 102 64
2 102 103
2 103 80
2 81 104
2 104 105
2 83 105
2 105 190
2 85 106
2 217 120
2 87 107
2 108 88
2 255 122
2 109 90
2 109 110
2 92 110
2 110 188
2 111 94
2 95 112
2 112 113
2 113 79
2 113 114
2 63 114
2 114 194
2 115 46
2 116 47
2 116 172
2 117 29
2 169 118
2 118 15
2 157 119
2 0 119
2 119 180
2 99 100
2 103 104
2 249 292
2 111 112
2 183 116
2 120 204
2 121 224
2 120 121
2 122 242
2 123 282
2 122 123
2 124 11
2 125 21
2 124 125
2 41 126
2 127 25
2 126 127
2 34 128
2 129 51
2 128 129
2 203 130
2 131 39
2 130 131
2 39 132
2 133 58
2 132 133
2 134 66
2 135 68
2 134 135
2 136 135
2 137 70
2 136 137
2 207 138
2 130 139
2 139 138
2 140 73
2 75 141
2 231 140
2 142 141
2 143 77
2 142 143
2 144 10
2 145 12
2 144 145
2 146 33
2 147 18
2 146 147
2 148 34
2 149 35
2 148 149
2 221 150
2 151 74
2 150 240
2 152 149
2 153 22
2 152 153
2 94 154
2 155 78
2 154 155
2 156 15
2 157 118
2 156 157
2 266 87
2 357 222
2 159 158
2 181 160
2 161 3
2 160 161
2 162 54
2 163 174
2 162 163
2 164 121
2 71 165
2 165 164
2 445 166
2 247 167
2 337 166
2 168 29
2 169 117
2 168 169
2 44 170
2 171 182
2 170 171
2 172 117
2 173 28
2 172 173
2 174 38
2 175 132
2 174 175
2 176 82
2 177 66
2 176 177
2 178 16
2 179 98
2 178 179
2 180 96
2 181 1
2 180 181
2 182 46
2 183 115
2 182 183
2 61 184
2 185 63
2 184 185
2 186 32
2 187 100
2 186 187
2 188 111
2 189 154
2 188 189
2 190 106
2 191 84
2 190 191
2 192 42
2 193 170
2 192 193
2 194 115
2 195 45
2 194 195
2 196 60
2 197 184
2 196 197
2 198 155
2 199 62
2 198 199
2 200 82
2 201 84
2 200 201
2 72 202
2 203 56
2 202 203
2 204 234
2 205 235
2 205 204
2 261 206
2 167 207
2 206 245
2 208 201
2 209 85
2 208 209
2 210 76
2 227 74
2 210 211
2 236 72
2 213 167
2 239 274
2 214 123
2 230 215
2 241 237
2 216 209
2 217 106
2 216 217
2 89 218
2 219 108
2 218 219
2 220 109
2 221 226
2 220 221
2 222 358
2 320 223
2 223 222
2 224 298
2 264 225
2 225 224
2 226 90
2 227 211
2 226 227
2 228 288
2 289 229
2 228 268
2 151 230
2 231 141
2 230 231
2 229 232
2 233 138
2 265 233
2 234 278
2 235 86
2 235 234
2 236 212
2 257 237
2 291 236
2 248 284
2 246 239
2 271 295
2 240 151
2 241 215
2 240 258
2 242 220
2 243 150
2 242 243
2 277 244
2 232 306
2 245 267
2 212 246
2 247 202
2 246 247
2 253 248
2 301 249
2 249 248
2 448 238
2 251 228
2 294 354
2 252 302
2 300 253
2 335 309
2 218 254
2 255 219
2 254 255
2 280 256
2 259 281
2 256 257
2 258 241
2 259 257
2 283 259
2 260 107
2 261 87
2 260 261
2 238 319
2 449 318
2 263 262
2 299 264
2 232 265
2 265 264
2 223 356
2 244 269
2 267 266
2 268 229
2 321 267
2 313 307
2 212 270
2 271 239
2 270 271
2 272 316
2 273 388
2 272 273
2 274 213
2 275 251
2 274 275
2 276 433
2 277 312
2 488 276
2 278 260
2 279 206
2 278 279
2 89 280
2 281 214
2 280 281
2 282 243
2 283 258
2 282 283
2 284 293
2 311 285
2 308 284
2 472 286
2 473 287
2 287 286
2 288 213
2 289 207
2 288 289
2 285 350
2 333 291
2 291 290
2 292 338
2 293 340
2 293 292
2 403 345
2 330 370
2 295 294
2 86 296
2 297 245
2 296 297
2 298 205
2 299 296
2 298 299
2 262 300
2 301 263
2 300 301
2 302 270
2 303 295
2 302 303
2 304 275
2 305 277
2 304 305
2 306 297
2 307 269
2 306 307
2 308 341
2 315 252
2 309 308
2 88 310
2 311 332
2 310 311
2 312 251
2 313 268
2 312 313
2 314 419
2 309 366
2 315 363
2 316 432
2 317 276
2 317 316
2 318 458
2 319 392
2 319 318
2 359 320
2 269 321
2 321 320
2 322 444
2 166 323
2 323 322
2 324 368
2 369 353
2 324 325
2 343 326
2 327 324
2 326 355
2 478 462
2 416 329
2 377 328
2 330 329
2 314 496
2 361 381
2 332 256
2 333 237
2 332 333
2 262 334
2 335 253
2 334 404
2 421 336
2 441 407
2 435 431
2 338 108
2 339 310
2 338 339
2 340 339
2 341 285
2 340 341
2 303 362
2 343 294
2 342 343
2 344 158
2 328 474
2 373 344
2 346 498
2 482 347
2 347 346
2 348 378
2 349 379
2 348 349
2 350 290
2 351 315
2 350 351
2 411 352
2 325 353
2 353 352
2 354 304
2 355 327
2 354 355
2 356 266
2 357 107
2 356 357
2 358 410
2 352 359
2 359 358
2 360 349
2 331 361
2 497 360
2 362 380
2 331 363
2 363 362
2 345 364
2 437 365
2 365 364
2 366 351
2 367 331
2 366 367
2 368 305
2 369 244
2 368 369
2 408 450
2 371 451
2 371 413
2 422 504
2 456 466
2 439 468
2 426 376
2 485 375
2 374 375
2 484 486
2 412 377
2 376 494
2 378 418
2 379 314
2 379 378
2 380 342
2 393 330
2 409 380
2 455 382
2 383 361
2 382 383
2 395 384
2 385 373
2 384 483
2 386 440
2 337 387
2 387 386
2 388 317
2 336 389
2 489 388
2 390 272
2 391 273
2 390 391
2 392 459
2 381 393
2 415 417
2 394 346
2 395 347
2 394 395
2 326 396
2 397 327
2 396 397
2 398 348
2 399 360
2 398 399
2 328 400
2 364 401
2 469 475
2 342 402
2 403 436
2 402 403
2 404 335
2 405 367
2 404 405
2 323 406
2 407 337
2 406 407
2 370 408
2 409 381
2 408 409
2 410 322
2 411 406
2 410 411
2 329 412
2 413 370
2 412 413
2 383 414
2 415 393
2 414 415
2 428 490
2 392 477
2 417 416
2 418 263
2 419 454
2 418 419
2 401 420
2 421 434
2 420 421
2 372 422
2 286 423
2 495 479
2 382 424
2 425 452
2 424 425
2 423 426
2 427 287
2 426 427
2 461 428
2 429 514
2 465 429
2 391 430
2 431 389
2 430 431
2 432 500
2 501 433
2 433 432
2 434 365
2 435 387
2 434 435
2 436 396
2 437 386
2 436 437
2 438 401
2 373 463
2 508 438
2 440 397
2 441 325
2 440 441
2 345 442
2 443 438
2 442 443
2 444 390
2 445 430
2 444 445
2 446 487
2 515 447
2 447 446
2 464 506
2 507 449
2 449 448
2 450 402
2 451 442
2 450 451
2 452 414
2 453 417
2 452 453
2 454 334
2 455 405
2 454 455
2 420 512
2 457 336
2 493 457
2 458 398
2 459 399
2 458 459
2 453 460
2 461 470
2 460 461
2 372 462
2 463 510
2 503 463
2 448 464
2 465 428
2 464 465
2 466 385
2 439 467
2 466 511
2 468 372
2 505 469
2 509 469
2 470 416
2 471 480
2 470 471
2 250 472
2 473 159
2 472 473
2 474 371
2 475 443
2 474 475
2 425 476
2 491 460
2 476 477
2 250 478
2 479 423
2 478 479
2 480 377
2 481 400
2 480 481
2 499 482
2 483 385
2 482 483
2 376 484
2 485 427
2 484 485
2 486 374
2 487 429
2 486 487
2 457 488
2 489 389
2 488 489
2 490 238
2 491 477
2 490 491
2 384 492
2 493 456
2 492 493
2 494 446
2 495 422
2 494 495
2 496 424
2 497 476
2 496 497
2 498 159
2 499 344
2 498 499
2 500 394
2 501 492
2 500 501
2 502 250
2 503 462
2 502 503
2 504 447
2 505 400
2 504 505
2 506 374
2 507 375
2 506 507
2 513 508
2 509 468
2 508 509
2 510 439
2 511 467
2 510 511
2 512 456
2 513 467
2 512 513
2 514 471
2 515 481
2 514 515

CELL_TYPES 774
3
3
3
3
3
3
3
3
3
3
3
3
3
3
3
3
3
3
3
3
3
3
3
3
3
3
3
3
3
3
3
3
3
3
3
3
3
3
3
3
3
3
3
3
3
3
3
3
3
3
3
3
3
3
3
3
3
3
3
3
3
3
3
3
3
3
3
3
3
3
3
3
3
3
3
3
3
3
3
3
3
3
3
3
3
3
3
3
3
3
3
3
3
3
3
3
3
3
3
3
3
3
3
3
3
3
3
3
3
3
3
3
3
3
3
3
3
3
3
3
3
3
3
3
3
3
3
3
3
3
3
3
3
3
3
3
3
3
3
3
3
3
3
3
3
3
3
3
3
3
3
3
3
3
3
3
3
3
3
3
3
3
3
3
3
3
3
3
3
3
3
3
3
3
3
3
3
3
3
3
3
3
3
3
3
3
3
3
3
3
3
3
3
3
3
3
3
3
3
3
3
3
3
3
3
3
3
3
3
3
3
3
3
3
3
3
3
3
3
3
3
3
3
3
3
3
3
3
3
3
3
3
3
3
3
3
3
3
3
3
3
3
3
3
3
3
3
3
3
3
3
3
3
3
3
3
3
3
3
3
3
3
3
3
3
3
3
3
3
3
3
3
3
3
3
3
3
3
3
3
3
3
3
3
3
3
3
3
3
3
3
3
3
3
3
3
3
3
3
3
3
3
3
3
3
3
3
3
3
3
3
3
3
3
3
3
3
3
3
3
3
3
3
3
3
3
3
3
3
3
3
3
3
3
3
3
3
3
3
3
3
3
3
3
3
3
3
3
3
3
3
3
3
3
3
3
3
3
3
3
3
3
3
3
3
3
3
3
3
3
3
3
3
3
3
3
3
3
3
3
3
3
3
3
3
3
3
3
3
3
3
3
3
3
3
3
3
3
3
3
3
3
3
3
3
3
3
3
3
3
3
3
3
3
3
3
3
3
3
3
3
3
3
3
3
3
3
3
3
3
3
3
3
3
3
3
3
3
3
3
3
3
3
3
3
3
3
3
3
3
3
3
3
3
3
3
3
3
3
3
3
3
3
3
3
3
3
3
3
3
3
3
3
3
3
3
3
3
3
3
3
3
3
3
3
3
3
3
3
3
3
3
3
3
3
3
3
3
3
3
3
3
3
3
3
3
3
3
3
3
3
3
3
3
3
3
3
3
3
3
3
3
3
3
3
3
3
3
3
3
3
3
3
3
3
3
3
3
3
3
3
3
3
3
3
3
3
3
3
3
3
3
3
3
3
3
3
3
3
3
3
3
3
3
3
3
3
3
3
3
3
3
3
3
3
3
3
3
3
3
3
3
3
3
3
3
3
3
3
3
3
3
3
3
3
3
3
3
3
3
3
3
3
3
3
3
3
3
3
3
3
3
3
3
3
3
3
3
3
3
3
3
3
3
3
3
3
3
3
3
3
3
3
3
3
3
3
3
3
3
3
3
3
3
3
3
3
3
3
3
3
3
3
3
3
3
3
3
3
3
3
3
3
3
3
3
3
3
3
3
3
3
3
3
3
3
3
3
3
3
3
3
3
3
3
3
3
3
3
3
3
3
3
3
3
3
3
3
3
3
3
3
3
3
3
3
3
3
3
3
3
3
3
3
3
3
3
3
3
3
3
3
3
3
3
3
3
3
3
3
3
3
3
3
3
3
3
3
3
3
3
3
3
3
3
3
3
3
3
3
3
3
3
3
3
3
3
3
3
3
3
3
3
3
3
3
3
3
3
3
3
3
3
3

CELL_DATA 774
SCALARS current_Length float
LOOKUP_TABLE default
0.884174
1.02239
1.47798
1.47559
1.64878
1.46994
0.536307
1.02789
1.76643
1.1094
1.02092
1.2265
1.77692
1.4835
0.469876
0.178483
1.72427
1.02147
0.0381714
0.600256
0.562526
0.809701
0.300883
0.696168
1.28617
1.09681
0.78431
1.05035
0.958809
1.98559
0.390176
0.61226
1.86722
0.509268
1.33939
1.13295
0.772085
0.834152
1.07505
0.963486
1.324
0.8596
2.02894
0.00249733
1.32411
1.58073
1.4182
0.979314
0.762769
0.942139
0.732615
0.753546
1.19352
1.56612
1.78147
1.02105
1.00511
1.5352
1.19902
1.45497
1.0875
0.633166
0.713654
0.523098
1.07978
0.838992
1.15195
2.14558
1.70387
1.50803
0.7723
1.15523
1.55274
0.905195
0.941451
0.712503
1.13997
1.69533
0.956328
1.14193
0.883133
1.84893
0.352483
0.669535
0.562079
0.556425
1.034
0.00250023
1.40883
0.00249064
1.291
1.70786
0.81083
0.720805
1.15295
1.68324
0.00595881
1.59413
0.267349
0.782388
1.36474
1.12784
0.61958
1.42024
0.247311
0.587528
1.35214
0.401807
0.851467
1.56683
1.0223
1.15924
1.0358
1.2386
1.05383
1.66085
0.790906
0.820734
1.4204
0.534701
0.709175
0.222862
1.1365
0.868605
0.665526
2.11029
0.68917
1.3679
2.2437
0.00919398
1.09829
1.05923
2.06925
1.3229
2.56992
0.929086
2.69886
1.11184
2.25802
2.2767
1.63872
3.13681
0.187996
3.22329
1.29232
2.09115
2.18386
0.817185
2.16888
2.07057
2.26706
0.654484
2.44547
3.22092
1.18081
2.49852
1.32016
2.40997
1.2017
2.03807
2.05652
1.3966
2.72915
0.949601
3.01304
0.71986
2.56929
2.64554
1.75454
2.81849
0.614716
2.76245
1.39407
2.05703
1.55529
1.9362
2.08984
1.19979
2.13112
1.02378
0.0100609
0.561626
3.75608
0.931175
1.07958
2.74079
1.46623
1.65123
1.35494
0.361134
1.06388
1.84101
1.83163
1.06313
1.0113
1.33321
1.23944
0.969273
1.53338
1.34604
1.3044
0.95364
1.10428
2.06947
1.0955
1.60977
1.20652
0.350653
2.03787
0.00250362
1.72615
1.49523
1.31525
0.872079
1.64217
1.44379
0.630689
1.42991
1.76992
1.65688
1.65498
1.9035
0.755023
1.11591
2.17907
0.45227
0.6448
2.45501
0.0024995
1.31824
1.61762
1.41771
1.7995
1.56215
0.674565
1.72366
2.71641
0.873571
1.83006
1.76885
0.695608
1.01134
1.45151
1.17388
1.11752
1.60125
0.532624
0.367457
3.06395
0.512808
0.984349
1.8434
0.61759
1.70226
2.84538
1.09001
0.965762
1.46239
0.745646
0.975797
2.67255
1.56474
0.830964
1.0897
0.172019
1.123
1.80083
0.728374
1.73976
2.62774
2.08938
1.13149
2.0246
0.762929
1.86085
2.4614
1.16217
0.936599
1.77629
0.307002
1.04968
2.97548
1.39509
0.0676068
3.03164
1.50548
0.689723
2.0823
1.01741
0.672649
1.60157
0.895355
0.467442
3.20061
1.01519
1.06976
2.04283
1.15482
1.98826
0.944333
1.57023
1.77995
0.59164
2.08772
1.55969
0.800821
1.82785
0.678257
2.74941
0.900761
2.2032
1.81643
1.2881
1.57547
1.57189
1.19302
1.25101
0.883938
1.23302
1.36874
0.388295
0.586161
1.43819
0.626307
0.00251173
1.1515
3.37886
1.27919
1.08001
2.37827
1.08101
0.00251897
3.38959
0.588383
1.36993
2.8211
0.665624
1.04136
2.09551
1.43635
0.950795
2.07853
0.939813
1.84434
1.71194
1.51811
0.982178
1.17363
0.821115
2.00861
1.77012
0.994043
0.965603
2.56456
0.752599
1.65313
1.43231
0.703989
1.62424
1.12722
0.936916
0.595162
0.59591
0.76487
0.870857
3.21931
2.33644
2.26447
0.788586
1.55487
0.338025
1.32576
0.516216
1.31381
2.54446
0.928146
0.937315
1.72373
0.628768
1.00341
1.51888
0.853068
1.94738
2.35505
1.79997
1.53877
1.34137
2.08836
1.37697
0.359303
1.87098
0.797692
2.4976
0.806198
1.52071
2.3839
1.71019
0.00251271
1.20087
0.615581
0.528148
1.83408
0.975884
0.807669
1.44575
1.09776
1.01091
1.80349
1.66106
0.324839
2.18093
1.40763
1.17432
1.3717
0.413884
0.151511
1.33421
1.00002
0.628582
2.8685
1.37422
1.52592
0.927231
0.316373
1.18397
2.12677
0.696905
0.622078
2.44526
1.60845
2.41967
1.55428
1.02408
0.989081
1.61427
0.963535
0.205627
0.848883
1.12222
1.28385
2.54983
1.28346
1.28321
0.353034
2.03232
1.26654
0.903967
1.40273
0.416383
1.66791
0.930695
2.02128
2.16022
0.96497
1.62408
1.57691
0.968641
1.09741
2.01146
0.992159
1.6099
0.461457
0.775322
1.59255
0.337478
0.647789
0.51227
2.68969
1.90302
1.26249
1.24251
0.460835
1.53267
0.71204
1.6431
1.3217
1.70953
1.48678
1.26293
1.97099
0.404325
1.00926
1.77297
1.03786
0.945208
2.60272
0.316448
1.43392
2.13727
1.35887
0.748668
1.15391
1.3082
0.911377
1.19175
1.89256
1.00859
1.05712
0.605009
1.29787
2.47216
1.14206
2.01431
1.97692
0.840311
1.14846
1.39572
0.680657
0.821195
3.1929
0.0560316
1.38528
2.2804
0.902138
1.53811
0.343177
1.12262
1.22691
1.65265
1.9082
0.690923
1.62797
2.11645
1.21902
1.93147
2.00151
1.49413
0.905812
1.32733
1.38148
1.24781
0.0986204
1.80708
1.23681
0.681381
1.08019
2.61975
0.342684
0.36791
3.781
0.929008
0.149502
1.01853
0.570124
1.52559
1.59048
1.64784
0.873862
0.760359
1.04168
1.24611
0.914403
1.3377
0.539749
2.08893
1.34632
1.00424
0.797391
0.498896
0.385768
0.716299
1.11068
1.42524
2.1523
1.1977
0.637881
1.37223
1.29741
1.10337
2.04982
1.7706
0.679179
0.794389
0.00250802
1.94236
1.47274
1.45881
1.56219
1.43058
0.682603
0.803689
1.67209
1.39904
1.53734
1.26145
1.95063
1.01832
2.28792
0.423919
1.20516
1.70457
2.40669
1.55619
1.73921
1.63244
0.994116
1.44069
1.47408
0.819396
2.05219
1.16788
1.38452
1.59279
1.28928
0.568451
1.79059
0.140845
1.58404
1.41757
1.37105
1.20669
1.65208
0.912738
1.60876
1.20575
1.05884
0.00250323
3.3377
0.764152
1.36422
1.76493
0.646763
1.20865
0.932023
1.14248
1.58111
0.692436
0.314897
1.00165
2.78707
1.26459
1.12317
0.961885
1.05752
0.965287
0.974891
1.33642
0.40421
1.21435
0.94115
1.85867
1.759
1.57387
2.0273
0.832693
1.07615
0.629314
1.44465
1.95993
1.00076
2.16008
1.36223
0.565763
1.37928
0.382068
1.10947
2.009
0.596031
0.876713
0.687254
1.56396
0.353256
1.38806
0.621885
1.55202
1.23702
1.04458
0.56863
2.81953
0.857994
1.1515
1.04907
0.568165
1.44023
1.96406
0.615441
1.2965
1.43667
2.00682
1.40071
1.03542
0.490265
1.21433
2.20848
1.77891
1.69115
0.516036
2.00376
1.14873
2.14871
0.946309
0.821859
1.29365
1.06727
0.695958
0.803858
1.16788
0.939875
1.44705
1.82222
2.05592
0.150806
0.977595
1.04202
0.192765
1.72803
0.228798
0.872279
0.444179
1.39139
1.77651
1.2936
1.10224
0.869605
1.78598
1.40324
0.792837
1.68879
1.31805
0.904832
2.05137
1.70454
0.956842
1.12524
0.272176
1.88732
0.682934
1.61831
1.99603
0.527094
0.790839
1.57412
1.03802
1.12875
1.57335
1.17614
0.596689
1.5017
0.283817
1.24688
1.64665
1.20702
1.50277
1.07269
1.41872
1.01816
1.53734
1.80246
0.678279
1.74694
0.881816
0.965969
2.34021
0.962296
1.19385
1.84577
1.55915
0.929364
1.63757
1.12553
1.97654
2.13274
0.831224
1.65183
1.96582
1.32529
1.70303
2.21378
4.6471e-310
4.6471e-310
3.21783
4.6471e-310
4.6471e-310
4.6471e-310

SCALARS edge_force float
LOOKUP_TABLE default
0.5
0.5
0.5
0.5
0.5
0.5
0.5
0.5
0.5
0.5
0.5
0.5
0.5
0.5
0.5
0.5
0.5
0.5
0.5
0.5
0.5
0.5
0.5
0.5
0.5
0.5
0.5
0.5
0.5
0.5
0.5
0.5
0.5
0.5
0.5
0.5
0.5
0.5
0.5
0.5
0.5
0.5
0.5
0.5
0.5
0.5
0.5
0.5
0.5
0.5
0.5
0.5
0.5
0.5
0.5
0.5
0.5
0.5
0.5
0.5
0.5
0.5
0.5
0.5
0.5
0.5
0.5
0.5
0.5
0.5
0.5
0.5
0.5
0.5
0.5
0.5
0.5
0.5
0.5
0.5
0.5
0.5
0.5
0.5
0.5
0.5
0.5
0.5
0.5
0.5
0.5
0.5
0.5
0.5
0.5
0.5
0.5
0.5
0.5
0.5
0.5
0.5
0.5
0.5
0.5
0.5
0.5
0.5
0.5
0.5
0.5
0.5
0.5
0.5
0.5
0.5
0.5
0.5
0.5
0.5
0.5
0.5
0.5
0.5
0.5
0.5
0.5
0.5
0.5
0.5
0.5
0.5
0.5
2
0.5
2
0.5
2
0.5
0.5
2
0.5
2
0.5
2
0.5
0.5
2
0.5
2
0.5
2
0.5
0.5
2
0.5
2
0.5
2
0.5
0.5
2
0.5
2
0.5
2
0.5
0.5
2
0.5
2
0.5
2
0.5
2
2
2
2
2
2
2
0.5
0.5
2
0.5
0.5
0.5
0.5
0.5
0.5
0.5
0.5
0.5
0.5
0.5
0.5
0.5
0.5
0.5
0.5
0.5
0.5
0.5
0.5
0.5
0.5
0.5
0.5
0.5
0.5
0.5
0.5
0.5
0.5
0.5
0.5
0.5
0.5
0.5
0.5
0.5
0.5
0.5
0.5
0.5
0.5
0.5
0.5
0.5
0.5
0.5
0.5
0.5
0.5
0.5
2
0.5
0.5
2
0.5
0.5
0.5
0.5
0.5
0.5
0.5
0.5
0.5
0.5
0.5
0.5
0.5
0.5
2
0.5
0.5
0.5
0.5
2
0.5
0.5
0.5
0.5
0.5
0.5
0.5
0.5
0.5
2
0.5
2
0.5
0.5
0.5
2
0.5
0.5
0.5
0.5
0.5
2
0.5
2
0.5
0.5
2
0.5
0.5
0.5
0.5
0.5
2
0.5
0.5
0.5
0.5
0.5
0.5
0.5
0.5
0.5
0.5
0.5
0.5
0.5
0.5
2
0.5
0.5
0.5
0.5
0.5
0.5
0.5
0.5
0.5
0.5
0.5
0.5
0.5
0.5
0.5
0.5
0.5
0.5
2
0.5
0.5
2
0.5
2
0.5
0.5
2
0.5
0.5
0.5
0.5
0.5
0.5
0.5
0.5
0.5
0.5
0.5
0.5
0.5
0.5
0.5
0.5
0.5
2
0.5
0.5
0.5
0.5
0.5
0.5
0.5
0.5
0.5
0.5
0.5
2
0.5
0.5
0.5
0.5
0.5
0.5
0.5
0.5
0.5
2
0.5
0.5
0.5
0.5
0.5
0.5
0.5
0.5
2
0.5
0.5
0.5
0.5
0.5
0.5
0.5
2
0.5
0.5
0.5
2
0.5
0.5
0.5
0.5
0.5
0.5
0.5
0.5
0.5
0.5
0.5
0.5
0.5
2
0.5
0.5
0.5
0.5
0.5
0.5
0.5
0.5
2
0.5
0.5
0.5
0.5
0.5
0.5
0.5
0.5
0.5
0.5
0.5
0.5
2
0.5
0.5
0.5
0.5
0.5
0.5
0.5
2
0.5
0.5
0.5
0.5
0.5
0.5
0.5
0.5
0.5
0.5
0.5
0.5
2
0.5
0.5
0.5
0.5
0.5
0.5
0.5
0.5
0.5
0.5
0.5
0.5
0.5
0.5
0.5
0.5
0.5
0.5
0.5
0.5
0.5
0.5
2
0.5
0.5
2
0.5
0.5
0.5
0.5
0.5
2
0.5
0.5
0.5
0.5
0.5
0.5
0.5
0.5
0.5
0.5
0.5
0.5
0.5
0.5
0.5
0.5
0.5
0.5
0.5
0.5
0.5
0.5
0.5
2
0.5
0.5
0.5
0.5
0.5
0.5
0.5
0.5
0.5
0.5
0.5
2
0.5
0.5
2
0.5
0.5
0.5
0.5
0.5
0.5
0.5
0.5
0.5
0.5
0.5
0.5
2
0.5
2
0.5
0.5
0.5
0.5
0.5
0.5
0.5
0.5
0.5
0.5
0.5
0.5
0.5
0.5
0.5
0.5
0.5
0.5
0.5
0.5
0.5
0.5
0.5
0.5
2
0.5
0.5
0.5
0.5
2
0.5
0.5
0.5
0.5
0.5
0.5
0.5
0.5
0.5
0.5
0.5
0.5
0.5
0.5
0.5
0.5
0.5
2
0.5
0.5
0.5
0.5
0.5
2
0.5
0.5
0.5
0.5
0.5
2
0.5
0.5
0.5
0.5
0.5
0.5
0.5
0.5
0.5
0.5
0.5
0.5
0.5
0.5
0.5
0.5
0.5
2
0.5
0.5
0.5
0.5
0.5
0.5
0.5
0.5
0.5
0.5
0.5
2
0.5
0.5
0.5
0.5
0.5
0.5
0.5
0.5
0.5
0.5
0.5
0.5
2
0.5
0.5
0.5
0.5
0.5
0.5
0.5
2
0.5
0.5
0.5
0.5
0.5
0.5
0.5
0.5
0.5
0.5
0.5
0.5
0.5
0.5
0.5
0.5
0.5
2
0.5
0.5
0.5
0.5
0.5
0.5
2
0.5
0.5
0.5
0.5
0.5
0.5
0.5
0.5
0.5
0.5
0.5
0.5
0.5
2
0.5
0.5
0.5
0.5
0.5
0.5
0.5
0.5
0.5
0.5
0.5
0.5
0.5
0.5
0.5
0.5
0.5
0.5
0.5
0.5
0.5
2
0.5
0.5
0.5
0.5
0.5
0.5
0.5
0.5
0.5
0.5
0.5
0.5
0.5
0.5
0.5
0.5
0.5
2
0.5
0.5
0.5
0.5
0.5
0.5
0.5
0.5
0.5
0.5
0.5
0.5
0.5
0.5
0.5
0.5
0.5
0.5
0.5
2
0.5
0.5
2
0.5
0.5
0.5
0.5
0.5
0.5
0.5
0.5
0.5
2
0.5
0.5
0.5
0.5
0.5
0.5
0.5
0
0
0
0
0
0
