# vtk DataFile Version 3.0
2D-vertex
ASCII
DATASET UNSTRUCTURED_GRID

POINTS 324 float
0.263679 -2.00959 0
2.85519 -1.79221 0
3.23513 -0.888668 0
2.25309 0.151724 0
-0.147271 0.333573 0
-0.895024 -1.06916 0
3.84737 -0.851246 0
4.4223 0.0140802 0
3.54914 1.42638 0
2.40191 1.09362 0
1.22344 2.24804 0
-0.549835 2.81588 0
-1.35278 1.59251 0
-1.61487 1.53699 0
-2.13099 0.0499011 0
-1.65721 -0.812951 0
5.01378 -0.135389 0
5.91276 0.79658 0
4.12171 2.16117 0
3.75579 2.07152 0
2.95712 2.9548 0
1.75787 2.87471 0
1.21276 6.15659 0
0.0829073 6.10667 0
-0.635132 4.36192 0
-2.02012 3.6546 0
-2.0098 1.94193 0
-3.39831 1.68136 0
-3.87588 0.810775 0
-3.59533 0.106762 0
7.01723 0.829542 0
7.69675 1.67175 0
7.44762 2.94555 0
5.30177 3.85964 0
5.83763 4.50321 0
3.43029 5.55886 0
2.73721 6.63907 0
1.67714 6.78149 0
0.582746 9.51844 0
-1.13552 9.44222 0
-0.762537 6.88954 0
-2.56666 6.10186 0
-3.52469 4.83648 0
-4.65787 4.94149 0
-5.34208 3.81779 0
-6.80944 3.60766 0
-7.1052 2.69505 0
-5.52329 1.16421 0
7.96973 3.75057 0
7.64955 4.63095 0
7.00793 4.92262 0
6.24909 6.882 0
3.83605 7.75503 0
3.71759 8.46442 0
2.19082 9.73915 0
2.74974 10.5935 0
-2.16949 10.6869 0
-2.15577 10.0689 0
-3.35484 9.02399 0
-3.09968 7.10903 0
-4.90637 7.67839 0
-6.2584 6.6551 0
-8.25346 5.59082 0
-8.15531 4.93913 0
8.59305 5.15216 0
8.61335 5.24398 0
7.23042 7.01882 0
7.50215 8.41172 0
6.29894 9.32481 0
6.44589 10.1855 0
5.72855 10.9141 0
5.68925 11.3387 0
-2.69443 12.9613 0
-2.94673 12.7557 0
-6.55313 11.3938 0
-5.94662 10.1649 0
-6.7367 9.2108 0
-6.60217 8.77653 0
-9.16954 6.3853 0
-9.02308 5.84215 0
10.0596 5.65642 0
10.3384 6.79679 0
9.59726 7.79151 0
10.5977 8.27329 0
10.2231 9.90665 0
10.3926 10.8391 0
8.5724 15.9492 0
7.15532 19.1859 0
-7.26473 18.7973 0
-7.62064 18.0036 0
-10.2144 11.761 0
-9.94367 10.9313 0
-10.3739 10.3851 0
-9.7038 9.02531 0
-10.4869 7.81634 0
-10.1149 6.61943 0
3.73198 -3.58651 0
4.98989 -3.01137 0
5.89818 -2.55841 0
8.32367 -0.84097 0
9.61098 0.692654 0
10.8892 3.12852 0
11.0536 3.46222 0
11.7327 4.67646 0
12.3872 6.74166 0
12.5457 7.67422 0
12.3131 11.4289 0
8.04799 20.7243 0
-8.54869 20.3757 0
-12.1913 12.1763 0
-12.4048 10.5965 0
-12.3895 7.72887 0
-11.7498 5.61424 0
-10.9784 4.3326 0
-10.3493 3.40366 0
-9.33835 1.7584 0
-7.37387 -0.535436 0
-5.21871 -2.04284 0
-3.03863 -3.09677 0
0.022222 -3.94873 0
11.6579 13.687 0
8.79582 12.7756 0
-11.3419 15.8218 0
-9.19804 15.3772 0
-0.441061 4.11537 0
1.06143 4.24614 0
-2.02149 6.002 0
-1.42149 4.35956 0
4.83568 5.83363 0
5.17035 6.81691 0
0.255685 10.8752 0
0.0997199 9.94091 0
-1.36089 8.05319 0
-2.75091 7.79918 0
6.24857 6.88444 0
5.3631 8.69652 0
4.40856 9.04858 0
4.24345 10.2391 0
2.32499 11.3161 0
2.32344 11.3142 0
-2.87052 11.1255 0
-4.5123 10.0587 0
-4.12368 9.16491 0
-4.97754 8.30982 0
1.3135 1.74078 0
-0.195309 0.688808 0
6.63557 3.0999 0
5.58465 1.38518 0
5.29953 3.86075 0
3.26315 4.48594 0
-8.81066 13.1555 0
-6.22791 11.9299 0
3.22786 4.46729 0
1.67741 5.07197 0
-9.61083 8.78845 0
-8.24356 7.90939 0
-0.96704 -1.10282 0
-1.40165 -3.6851 0
1.50512 20.5753 0
1.67916 22.8081 0
1.13608 -1.64974 0
1.24686 -0.286198 0
2.61608 8.76594 0
1.43844 7.56138 0
8.69643 11.9798 0
5.81871 11.1577 0
4.07632 19.9503 0
0.230422 12.5477 0
-2.9562 -0.198942 0
-3.68134 -2.8191 0
-4.79372 2.79758 0
-5.63223 1.78649 0
-5.9401 -1.60324 0
-4.85859 0.691607 0
0.396545 8.03058 0
-0.692517 7.50336 0
9.55927 7.46858 0
7.9898 6.5271 0
5.73094 0.262763 0
7.39275 -1.61662 0
1.6447 -4.02932 0
1.67833 -2.07954 0
-6.62256 1.95171 0
-8.17806 0.24427 0
-5.98091 5.49773 0
-7.25684 4.50207 0
7.78135 3.14447 0
10.1799 1.64955 0
-12.4611 9.18046 0
-9.70567 9.02364 0
12.6234 9.81802 0
10.7198 9.46963 0
-3.15269 3.91502 0
-4.01485 2.74165 0
-9.85053 2.62505 0
-7.27473 3.99853 0
-4.0227 6.98864 0
-4.83688 5.3083 0
-7.3105 7.91116 0
-6.92226 6.84295 0
8.45764 8.73441 0
8.6567 9.47802 0
-0.92056 12.3454 0
-0.797632 11.5424 0
11.5705 14.2067 0
9.36993 14.3958 0
8.04085 17.2244 0
2.11568 11.6346 0
7.9547 10.43 0
9.16441 11.664 0
-7.8496 9.55873 0
-8.07883 10.6125 0
-2.35109 14.7623 0
0.771311 13.8746 0
-8.74328 15.9912 0
-4.24542 13.0235 0
9.16461 11.672 0
11.9102 12.805 0
-8.40771 17.9329 0
-9.717 19.2304 0
-11.8815 13.5582 0
-9.18825 12.7947 0
6.25539 21.6637 0
5.77356 20.1913 0
8.43417 13.0556 0
6.39816 12.6125 0
-9.16759 12.6851 0
-7.58773 11.392 0
2.07648 14.7877 0
4.00321 13.5704 0
-4.9116 11.9248 0
-4.13506 10.7607 0
4.66686 13.542 0
4.22051 11.7808 0
11.1082 16.2566 0
9.29106 15.4998 0
-2.78418 14.5386 0
-4.28753 14.8182 0
-0.823286 20.1432 0
-0.0848774 15.2802 0
-6.73578 12.867 0
-4.63685 13.6661 0
-11.6386 14.5727 0
-9.10423 14.0474 0
3.26242 18.3361 0
6.57083 16.8164 0
-1.12078 14.1527 0
-0.685139 12.5894 0
-5.09237 20.6928 0
-5.9016 22.1908 0
0.660404 20.1648 0
1.61077 16.1678 0
-2.38219 17.4765 0
-3.86671 20.6445 0
-9.09426 16.7725 0
-10.8713 17.3234 0
-5.3681 16.7981 0
-5.06289 15.3818 0
-6.32853 13.5602 0
-6.60431 14.8638 0
9.6799 19.0832 0
8.19012 18.1687 0
-2.35991 21.139 0
-2.0872 23.121 0
5.90355 13.4997 0
4.69273 13.5008 0
6.81886 19.131 0
6.05319 17.5616 0
3.44262 14.7592 0
4.68252 17.2803 0
-1.93608 16.2569 0
-0.651285 16.3291 0
5.03224 22.1403 0
3.97898 20.2505 0
0.0311725 15.2662 0
1.04348 16.3621 0
2.18442 20.154 0
2.76468 18.1513 0
10.5029 17.6528 0
8.63715 16.7631 0
-6.86985 16.8431 0
-7.3638 15.9454 0
-8.80188 14.424 0
-6.83615 14.3567 0
-5.57267 19.6766 0
-4.41899 17.2981 0
0.15677 20.5292 0
0.405005 22.9214 0
1.58418 13.923 0
2.622 12.6747 0
-3.52634 16.6281 0
-3.62341 15.0978 0
-7.35679 21.3063 0
-6.13236 19.6016 0
0.509357 18.2287 0
-0.172918 17.9199 0
7.01331 15.1418 0
6.26829 15.6959 0
8.49696 13.8323 0
7.02124 14.6164 0
-3.58864 21.0591 0
-4.2307 22.8625 0
-2.38037 17.4747 0
-1.00945 18.5067 0
0.903948 17.9765 0
2.12383 18.6122 0
5.39069 15.4198 0
4.58903 16.1457 0
-4.2437 18.4281 0
-3.33607 19.0202 0
-6.4345 18.8945 0
-5.1755 17.1488 0
2.65235 16.8794 0
3.88638 15.912 0
-1.71074 20.3328 0
-2.6676 18.8304 0
3.05158 22.6528 0
2.91348 20.6072 0
-0.745363 23.0246 0
-1.1674 20.4559 0
4.89739 19.7134 0
5.24901 17.6951 0
5.64381 21.902 0
4.56953 19.808 0

CELLS 486 1458
2 160 0
2 1 2
2 2 3
2 161 4
2 4 5
2 5 0
2 2 6
2 6 7
2 7 8
2 8 9
2 3 9
2 9 144
2 10 11
2 11 12
2 145 4
2 12 13
2 13 14
2 15 14
2 5 156
2 7 16
2 17 178
2 147 17
2 19 18
2 19 8
2 20 19
2 21 20
2 10 21
2 153 125
2 23 22
2 24 23
2 24 124
2 127 24
2 26 25
2 26 13
2 27 26
2 28 27
2 29 28
2 14 168
2 30 17
2 30 31
2 32 31
2 32 146
2 18 33
2 33 148
2 128 35
2 20 152
2 35 36
2 37 36
2 22 37
2 37 163
2 38 131
2 175 40
2 40 23
2 126 40
2 42 41
2 25 192
2 43 42
2 43 44
2 193 27
2 45 44
2 46 45
2 47 171
2 173 47
2 48 186
2 48 49
2 49 50
2 34 50
2 50 51
2 52 129
2 36 52
2 52 53
2 53 162
2 54 38
2 55 54
2 139 55
2 57 56
2 39 57
2 58 57
2 59 133
2 41 59
2 59 196
2 61 60
2 197 43
2 199 61
2 62 63
2 195 185
2 49 64
2 64 65
2 177 65
2 51 134
2 67 66
2 68 67
2 53 136
2 69 68
2 70 69
2 55 137
2 165 70
2 233 71
2 73 72
2 140 56
2 215 73
2 74 75
2 58 142
2 76 75
2 77 76
2 60 143
2 77 198
2 78 79
2 79 62
2 65 80
2 80 81
2 81 176
2 67 200
2 82 83
2 83 191
2 69 208
2 84 85
2 164 216
2 71 225
2 86 279
2 158 250
2 88 89
2 290 252
2 254 214
2 90 91
2 91 211
2 91 92
2 92 93
2 93 210
2 189 93
2 94 95
2 95 78
2 96 1
2 96 97
2 97 6
2 97 98
2 16 98
2 179 99
2 99 30
2 31 100
2 187 101
2 101 48
2 101 102
2 102 64
2 102 103
2 103 80
2 81 104
2 104 105
2 83 105
2 105 190
2 85 106
2 217 120
2 107 87
2 108 88
2 255 122
2 109 90
2 109 110
2 92 110
2 110 188
2 111 94
2 95 112
2 112 113
2 113 79
2 113 114
2 63 114
2 114 194
2 115 46
2 116 47
2 116 172
2 117 29
2 169 118
2 118 15
2 157 119
2 0 119
2 119 180
2 99 100
2 103 104
2 249 292
2 111 112
2 183 116
2 120 204
2 121 224
2 120 121
2 122 242
2 123 282
2 122 123
2 124 11
2 125 21
2 124 125
2 41 126
2 127 25
2 126 127
2 34 128
2 129 51
2 128 129
2 203 130
2 131 39
2 130 131
2 39 132
2 133 58
2 132 133
2 134 66
2 135 68
2 134 135
2 136 135
2 137 70
2 136 137
2 207 138
2 130 139
2 139 138
2 140 73
2 75 141
2 231 140
2 142 141
2 143 77
2 142 143
2 144 10
2 145 12
2 144 145
2 146 33
2 147 18
2 146 147
2 148 34
2 149 35
2 148 149
2 221 150
2 151 74
2 150 240
2 152 149
2 153 22
2 152 153
2 94 154
2 155 78
2 154 155
2 156 15
2 157 118
2 156 157
2 87 266
2 107 222
2 159 158
2 181 160
2 161 3
2 160 161
2 162 54
2 163 174
2 162 163
2 164 121
2 71 165
2 165 164
2 273 166
2 247 167
2 166 244
2 168 29
2 169 117
2 168 169
2 44 170
2 171 182
2 170 171
2 172 117
2 173 28
2 172 173
2 174 38
2 175 132
2 174 175
2 176 82
2 177 66
2 176 177
2 178 16
2 179 98
2 178 179
2 180 96
2 181 1
2 180 181
2 182 46
2 183 115
2 182 183
2 61 184
2 185 63
2 184 185
2 186 32
2 187 100
2 186 187
2 188 111
2 189 154
2 188 189
2 190 106
2 191 84
2 190 191
2 192 42
2 193 170
2 192 193
2 194 115
2 195 45
2 194 195
2 196 60
2 197 184
2 196 197
2 198 155
2 199 62
2 198 199
2 200 82
2 201 84
2 200 201
2 72 202
2 203 56
2 202 203
2 204 234
2 205 235
2 205 204
2 261 206
2 167 207
2 206 245
2 208 201
2 209 85
2 208 209
2 210 76
2 227 74
2 210 211
2 236 72
2 213 167
2 239 274
2 214 123
2 230 215
2 241 237
2 216 209
2 217 106
2 216 217
2 89 218
2 219 108
2 218 219
2 220 109
2 221 226
2 220 221
2 222 322
2 320 223
2 223 222
2 224 298
2 264 225
2 225 224
2 226 90
2 227 211
2 226 227
2 228 288
2 289 229
2 228 268
2 151 230
2 231 141
2 230 231
2 229 232
2 233 138
2 265 233
2 234 278
2 235 86
2 235 234
2 236 212
2 257 237
2 291 236
2 248 284
2 246 239
2 271 295
2 240 151
2 241 215
2 240 258
2 242 220
2 243 150
2 242 243
2 244 277
2 232 306
2 245 267
2 212 246
2 247 202
2 246 247
2 253 248
2 301 249
2 249 248
2 238 286
2 251 228
2 294 304
2 252 302
2 300 253
2 253 309
2 218 254
2 255 219
2 254 255
2 280 256
2 259 281
2 256 257
2 258 241
2 259 257
2 283 259
2 260 107
2 261 87
2 260 261
2 319 238
2 287 318
2 263 262
2 299 264
2 232 265
2 265 264
2 266 223
2 244 269
2 267 266
2 268 229
2 321 267
2 313 307
2 212 270
2 271 239
2 270 271
2 272 316
2 317 273
2 272 273
2 274 213
2 275 251
2 274 275
2 158 276
2 277 312
2 305 276
2 278 260
2 279 206
2 278 279
2 89 280
2 281 214
2 280 281
2 282 243
2 283 258
2 282 283
2 284 293
2 311 285
2 308 284
2 250 286
2 287 159
2 286 287
2 288 213
2 289 207
2 288 289
2 285 290
2 291 237
2 290 291
2 292 108
2 293 310
2 292 293
2 250 294
2 303 238
2 294 295
2 86 296
2 297 245
2 296 297
2 298 205
2 299 296
2 298 299
2 262 300
2 301 263
2 300 301
2 302 270
2 303 295
2 302 303
2 304 275
2 305 277
2 304 305
2 306 297
2 307 269
2 306 307
2 285 308
2 315 252
2 308 309
2 310 88
2 311 256
2 310 311
2 312 251
2 313 268
2 312 313
2 262 314
2 315 309
2 314 315
2 316 159
2 317 276
2 316 317
2 318 263
2 319 314
2 318 319
2 323 320
2 321 269
2 320 321
2 322 272
2 323 166
2 322 323

CELL_TYPES 486
3
3
3
3
3
3
3
3
3
3
3
3
3
3
3
3
3
3
3
3
3
3
3
3
3
3
3
3
3
3
3
3
3
3
3
3
3
3
3
3
3
3
3
3
3
3
3
3
3
3
3
3
3
3
3
3
3
3
3
3
3
3
3
3
3
3
3
3
3
3
3
3
3
3
3
3
3
3
3
3
3
3
3
3
3
3
3
3
3
3
3
3
3
3
3
3
3
3
3
3
3
3
3
3
3
3
3
3
3
3
3
3
3
3
3
3
3
3
3
3
3
3
3
3
3
3
3
3
3
3
3
3
3
3
3
3
3
3
3
3
3
3
3
3
3
3
3
3
3
3
3
3
3
3
3
3
3
3
3
3
3
3
3
3
3
3
3
3
3
3
3
3
3
3
3
3
3
3
3
3
3
3
3
3
3
3
3
3
3
3
3
3
3
3
3
3
3
3
3
3
3
3
3
3
3
3
3
3
3
3
3
3
3
3
3
3
3
3
3
3
3
3
3
3
3
3
3
3
3
3
3
3
3
3
3
3
3
3
3
3
3
3
3
3
3
3
3
3
3
3
3
3
3
3
3
3
3
3
3
3
3
3
3
3
3
3
3
3
3
3
3
3
3
3
3
3
3
3
3
3
3
3
3
3
3
3
3
3
3
3
3
3
3
3
3
3
3
3
3
3
3
3
3
3
3
3
3
3
3
3
3
3
3
3
3
3
3
3
3
3
3
3
3
3
3
3
3
3
3
3
3
3
3
3
3
3
3
3
3
3
3
3
3
3
3
3
3
3
3
3
3
3
3
3
3
3
3
3
3
3
3
3
3
3
3
3
3
3
3
3
3
3
3
3
3
3
3
3
3
3
3
3
3
3
3
3
3
3
3
3
3
3
3
3
3
3
3
3
3
3
3
3
3
3
3
3
3
3
3
3
3
3
3
3
3
3
3
3
3
3
3
3
3
3
3
3
3
3
3
3
3
3
3
3
3
3
3
3
3
3
3
3
3
3
3
3
3
3
3
3
3
3
3
3
3
3
3
3
3
3
3
3
3
3
3
3
3
3
3
3
3
3
3
3
3
3
3
3
3
3
3
3
3
3
3
3

CELL_DATA 486
SCALARS current_Length float
LOOKUP_TABLE default
0.943701
0.980174
1.43068
1.52568
1.58959
1.49231
0.613376
1.03891
1.66042
1.19451
0.953582
1.26628
1.86197
1.46334
0.358468
0.267904
1.57411
0.98437
0.0794921
0.610076
0.563932
0.673868
0.376739
0.677427
1.19083
1.20191
0.823611
1.03026
1.13095
1.88673
0.313761
0.786361
1.71271
0.565634
1.41275
0.992967
0.757853
0.861918
1.10497
1.08216
1.29793
0.826588
2.06817
0.0024989
1.432
1.53654
1.28344
1.06959
0.77856
0.815606
0.641711
0.617798
1.15224
1.54036
1.58714
1.16213
1.13803
1.31562
1.22651
1.48233
0.959337
0.631743
0.815589
0.634697
0.936794
0.704807
1.24319
2.10119
1.63109
1.56615
0.719209
1.14204
1.62315
1.02094
0.83731
0.61811
1.19737
1.59051
0.773268
1.13951
0.930843
1.69562
0.408163
0.689929
0.659045
0.503855
1.07789
0.0940357
1.42661
0.00249683
1.41917
1.51045
0.904808
0.873112
1.02252
1.53519
0.259677
1.53383
0.325457
0.8269
1.32602
1.37039
0.781657
1.23878
0.454631
0.635428
1.1183
0.562553
0.809619
1.50394
1.17395
1.02876
1.00851
1.11038
1.20256
1.52851
0.947718
0.560281
1.45781
0.816494
0.939178
0.869804
1.42438
0.856512
0.872793
1.8919
0.695254
1.51595
1.9294
0.00250798
1.25339
0.973902
1.99707
1.38315
2.44366
1.01497
2.57938
1.21171
2.12071
2.15009
1.64025
2.98499
0.371994
2.98497
1.39124
1.9389
2.04955
0.945935
2.03802
2.14521
2.00904
0.917362
1.77861
2.03468
1.57367
2.02003
1.59423
2.04191
1.41713
1.90466
1.91925
1.49591
2.47021
1.1219
2.67792
0.924664
2.42163
2.51266
1.7877
2.69372
0.700118
2.66911
1.44808
1.95411
1.62448
2.00229
2.16644
1.70291
2.20928
1.12012
0.527058
0.45739
3.00373
1.28386
1.03223
2.18943
1.30404
1.53813
1.50817
0.554246
0.924833
1.7486
1.66551
1.08071
1.03867
1.24681
1.33211
0.947262
1.4072
1.36561
1.41303
0.990996
1.12718
2.01685
1.0174
1.63134
1.20187
0.381075
2.11383
0.00250625
1.63203
1.43824
1.3161
0.974641
1.69034
1.2084
0.515196
1.46848
1.83933
1.535
1.65601
2.01115
0.838026
1.08586
2.13019
0.522226
0.627086
2.09483
0.0399193
1.17996
1.66419
1.30862
1.78334
1.62548
0.748568
1.73949
2.6186
0.340902
2.02382
2.23959
0.691934
1.09739
1.36803
1.06207
1.14267
1.68458
0.802001
0.22257
2.99284
0.315621
0.916509
1.80775
0.708476
1.72224
2.71865
1.15824
1.00401
1.31354
0.844778
0.989909
2.53692
1.49947
0.86547
1.20996
0.325151
0.904681
1.8302
0.820268
1.76655
2.50873
2.13373
1.21142
1.95007
0.886274
1.90758
2.30975
1.19016
0.99913
1.61844
0.388524
1.11325
2.82628
1.45335
0.253585
2.75987
1.64054
0.661584
1.93523
0.993712
0.780876
1.45607
1.00669
0.607681
2.9191
1.12099
1.1596
1.8672
0.933068
1.82754
1.13658
1.47912
1.62397
0.769796
1.87776
1.61673
0.812338
2.10135
1.10678
2.20865
0.955993
2.09476
1.52558
1.18285
1.47945
1.72799
1.16602
1.0346
1.07837
1.57984
1.4329
0.116891
0.764061
1.28488
1.20388
0.0080553
1.4338
2.97015
0.790241
1.63599
1.84334
1.41615
0.111561
2.79942
1.31276
0.998034
1.54915
0.779272
1.01572
2.08366
1.39631
0.921375
2.04153
0.995008
1.64622
1.36644
1.31632
0.796918
1.39938
0.664259
1.95164
1.7836
1.52173
0.847574
1.96841
0.487448
0.95854
1.00848
1.124
1.53113
1.66118
1.06582
0.752393
0.803973
1.04316
0.939049
2.58822
0.530947
2.01245
0.907372
1.37303
0.339101
1.62288
1.22661
1.80085
1.70259
1.05332
1.45651
0.468319
0.0025029
0.499139
1.70878
1.34827
2.22915
1.86046
1.50243
1.32163
1.44888
1.69499
1.62611
0.557604
2.31439
1.45104
1.74805
0.46497
1.15499
2.00066
1.57998
0.0486892
1.21082
1.48893
1.76955
1.74621
1.3143
0.815173
0.74049
1.55122
1.19203
1.28682
2.04587
1.12362
2.16353
1.57619
0.599644
1.49186
0.799303
1.27685
1.54302
1.65024
0.753931
2.06699
1.38221
1.38025
1.02457
0.482954
0.944512
1.96688
0.564701
0.771101
1.8234
0.621623
1.27918
2.40507
0.814311
1.15682
1.62337
1.11614
0.720594
1.53334
1.51219
0.768925
2.09889
1.94193
1.6471
0.748919
1.75572
1.16063
0.928478
1.03904
0.525439
1.67109
1.23133
2.15903
1.91429
1.29632
1.0218
1.71588
1.62044
0.789385
1.37558
0.920007
1.13848
1.08148
1.14356
1.38367
1.08369
0.835903
0.400102
2.15232
1.26146
1.23531
1.56799
1.03509
0.69491
1.78123
1.38118
0.858436
2.0502
1.34529
0.557116
2.60317
0.854544
0.702087
2.04876
3.31293
0
0

SCALARS edge_force float
LOOKUP_TABLE default
0.5
0.5
0.5
0.5
0.5
0.5
0.5
0.5
0.5
0.5
0.5
0.5
0.5
0.5
0.5
0.5
0.5
0.5
0.5
0.5
0.5
0.5
0.5
0.5
0.5
0.5
0.5
0.5
0.5
0.5
0.5
0.5
0.5
0.5
0.5
0.5
0.5
0.5
0.5
0.5
0.5
0.5
0.5
0.5
0.5
0.5
0.5
0.5
0.5
0.5
0.5
0.5
0.5
0.5
0.5
0.5
0.5
0.5
0.5
0.5
0.5
0.5
0.5
0.5
0.5
0.5
0.5
0.5
0.5
0.5
0.5
0.5
0.5
0.5
0.5
0.5
0.5
0.5
0.5
0.5
0.5
0.5
0.5
0.5
0.5
0.5
0.5
0.5
0.5
0.5
0.5
0.5
0.5
0.5
0.5
0.5
0.5
0.5
0.5
0.5
0.5
0.5
0.5
0.5
0.5
0.5
0.5
0.5
0.5
0.5
0.5
0.5
0.5
0.5
0.5
0.5
0.5
0.5
0.5
0.5
0.5
0.5
0.5
0.5
0.5
0.5
0.5
0.5
0.5
0.5
0.5
0.5
0.5
2
0.5
2
0.5
2
0.5
0.5
2
0.5
2
0.5
2
0.5
0.5
2
0.5
2
0.5
2
0.5
0.5
2
0.5
2
0.5
2
0.5
0.5
2
0.5
2
0.5
2
0.5
0.5
2
0.5
2
0.5
2
0.5
2
2
2
2
2
2
2
0.5
0.5
2
0.5
0.5
0.5
0.5
0.5
0.5
0.5
0.5
0.5
0.5
0.5
0.5
0.5
0.5
0.5
0.5
0.5
0.5
0.5
0.5
0.5
0.5
0.5
0.5
0.5
0.5
0.5
0.5
0.5
0.5
0.5
0.5
0.5
0.5
0.5
0.5
0.5
0.5
0.5
0.5
0.5
0.5
0.5
0.5
0.5
0.5
0.5
0.5
0.5
0.5
0.5
2
0.5
0.5
2
0.5
0.5
0.5
0.5
0.5
0.5
0.5
0.5
0.5
0.5
0.5
0.5
0.5
0.5
2
0.5
0.5
0.5
0.5
2
0.5
0.5
0.5
0.5
0.5
0.5
0.5
0.5
0.5
2
0.5
2
0.5
0.5
0.5
2
0.5
0.5
0.5
0.5
0.5
2
0.5
2
0.5
0.5
2
0.5
0.5
0.5
0.5
0.5
2
0.5
0.5
0.5
0.5
0.5
0.5
0.5
0.5
0.5
0.5
0.5
0.5
0.5
0.5
2
0.5
0.5
0.5
0.5
0.5
0.5
0.5
0.5
0.5
0.5
0.5
0.5
0.5
0.5
0.5
0.5
0.5
0.5
2
0.5
0.5
2
0.5
2
0.5
0.5
2
0.5
0.5
0.5
0.5
0.5
0.5
0.5
0.5
0.5
0.5
0.5
0.5
0.5
0.5
0.5
0.5
0.5
2
0.5
0.5
0.5
0.5
0.5
0.5
0.5
0.5
0.5
0.5
0.5
2
0.5
0.5
0.5
0.5
0.5
0.5
0.5
0.5
0.5
2
0.5
0.5
0.5
0.5
0.5
0.5
0.5
0.5
2
0.5
0.5
0.5
0.5
0.5
0.5
0.5
2
0.5
0.5
0.5
2
0.5
0.5
0.5
0.5
0.5
0.5
0.5
0.5
0.5
0.5
0.5
0.5
0.5
2
0.5
0.5
0.5
0.5
0.5
0.5
0.5
0.5
2
0.5
0.5
0.5
0.5
0.5
0.5
0.5
0.5
0.5
0.5
0.5
0.5
2
0.5
0.5
0.5
0.5
0.5
0.5
0.5
2
0.5
0.5
0.5
0.5
0.5
0.5
0.5
0.5
0.5
0.5
0.5
0.5
2
0.5
0.5
0.5
0.5
0.5
0.5
0.5
0.5
0.5
0.5
0.5
0.5
0.5
0.5
0.5
0.5
0.5
0.5
0.5
0.5
0.5
0.5
2
0.5
0.5
2
0.5
0.5
0.5
0.5
0.5
0
0
0
