# vtk DataFile Version 2.0
2D-vertex
ASCII
DATASET UNSTRUCTURED_GRID
POINTS 598 float
0.193985 -2.92716 0
2.64865 -2.80419 0
3.07047 -1.86991 0
2.0828 -0.766339 0
-0.184569 -0.54302 0
-0.950641 -2.00727 0
3.60125 -1.85482 0
4.20485 -1.02277 0
3.33104 0.522384 0
2.26633 0.244468 0
1.13343 1.53485 0
-0.549076 2.07276 0
-1.35396 0.825118 0
-1.51883 0.789626 0
-2.08222 -0.854336 0
-1.59837 -1.7557 0
4.77446 -1.2025 0
5.62094 -0.354275 0
3.84751 1.24329 0
3.56365 1.18452 0
2.72693 2.17233 0
1.64426 2.12434 0
1.12642 5.70658 0
0.207588 5.706 0
-0.639995 3.88481 0
-1.9005 3.03917 0
-1.8698 1.15232 0
-3.17548 0.894766 0
-3.71078 -0.117438 0
-3.42725 -0.836555 0
6.69207 -0.38417 0
7.34263 0.316038 0
7.21602 1.63505 0
5.04469 2.87833 0
5.53916 3.44115 0
3.23589 4.83467 0
2.53812 6.10464 0
1.60719 6.29694 0
0.704413 9.34979 0
-0.944782 9.42868 0
-0.64916 6.54184 0
-2.23146 5.66207 0
-3.28767 4.18338 0
-4.26925 4.23898 0
-5.02187 2.86939 0
-6.44294 2.58837 0
-6.74821 1.5334 0
-5.25668 0.150471 0
7.66702 2.24558 0
7.36675 3.29465 0
6.63893 3.73772 0
6.00283 5.80469 0
3.68034 7.06143 0
3.63584 7.86663 0
2.1993 9.44437 0
2.75414 10.1427 0
-1.95752 10.7486 0
-1.89575 9.96731 0
-3.11128 8.73128 0
-2.80981 6.64706 0
-4.48813 7.01193 0
-5.86639 5.74247 0
-7.81099 4.30685 0
-7.67383 3.76802 0
8.31432 3.67293 0
8.31441 3.67543 0
6.94003 5.75207 0
7.41564 6.94216 0
6.2348 8.22757 0
6.47445 8.89671 0
5.80062 9.88638 0
5.61914 10.2692 0
-2.756 13.0088 0
-2.95363 12.7895 0
-6.27116 10.1905 0
-5.58269 9.34229 0
-6.29421 8.05233 0
-6.19736 7.85431 0
-8.79632 4.8315 0
-8.6468 4.47174 0
9.8637 3.91581 0
10.2242 4.86012 0
9.47512 5.88195 0
10.6635 6.25327 0
10.4497 7.7894 0
10.6854 8.51652 0
10.121 13.2769 0
11.0899 15.5347 0
-9.95261 15.5413 0
-9.92113 15.418 0
-10.248 9.45973 0
-9.93773 8.9095 0
-10.2715 8.29169 0
-9.51991 7.17669 0
-10.3122 5.93051 0
-9.85405 4.9449 0
3.51778 -4.68569 0
4.73363 -4.1689 0
5.57721 -3.78672 0
7.97003 -2.25698 0
9.30263 -0.857533 0
10.7033 1.43295 0
10.7974 1.59174 0
11.5358 2.63919 0
12.3937 4.53914 0
12.6336 5.31334 0
12.9645 8.83457 0
13.5754 15.962 0
-13.3115 16.0636 0
-12.8048 9.41491 0
-12.7133 8.12326 0
-12.3281 5.57758 0
-11.455 3.63791 0
-10.5999 2.53878 0
-9.99927 1.8154 0
-9.10352 0.490924 0
-7.19538 -1.65797 0
-5.1436 -3.0782 0
-3.0655 -4.09958 0
-0.0832453 -4.96998 0
12.8724 10.5127 0
8.99275 10.6387 0
-13.0852 12.0198 0
-10.3096 12.7467 0
-0.404318 3.55605 0
0.923617 3.62909 0
-1.91573 5.61526 0
-1.21956 3.88842 0
4.52866 5.00059 0
4.95687 5.91347 0
0.396391 10.8578 0
0.175009 9.86448 0
-1.17791 7.8525 0
-2.41616 7.576 0
6.00202 5.80704 0
5.2543 7.76513 0
4.28645 8.28818 0
4.30812 9.54324 0
2.31962 11.0499 0
2.31749 11.0486 0
-2.58927 11.0647 0
-4.11733 9.49653 0
-3.66982 8.76556 0
-4.60516 7.59368 0
1.23503 0.899822 0
-0.239767 -0.0664553 0
6.39743 1.90284 0
5.26296 0.386722 0
5.0427 2.87983 0
3.03553 3.73159 0
-9.15196 11.0463 0
-6.08123 10.8376 0
3.03303 3.73161 0
1.59462 4.44257 0
-9.5127 7.11599 0
-8.09224 6.49452 0
-0.982566 -2.02274 0
-1.45045 -4.7023 0
7.65116 33.5423 0
9.09186 35.1491 0
1.01282 -2.60198 0
1.15462 -1.1515 0
2.58459 8.2833 0
1.38156 7.25466 0
8.80278 10.1469 0
5.80134 9.8888 0
9.63951 21.3392 0
0.241628 12.6172 0
-2.8744 -1.10192 0
-3.62717 -3.85134 0
-4.46445 1.93741 0
-5.37095 0.774363 0
-5.77914 -2.69248 0
-4.67392 -0.252276 0
0.413596 7.76601 0
-0.550497 7.3334 0
9.43632 5.73038 0
7.80413 4.99088 0
5.42107 -0.8807 0
7.08629 -2.92266 0
1.46637 -5.07298 0
1.5476 -3.04644 0
-6.32251 0.908005 0
-7.93912 -0.958504 0
-5.48418 4.64178 0
-6.80982 3.43001 0
7.48835 1.76051 0
9.89987 0.00407026 0
-12.58 6.95449 0
-9.53341 7.15429 0
13.0075 7.34373 0
10.9124 7.26139 0
-2.88072 3.24346 0
-3.8053 1.91542 0
-9.58179 1.24423 0
-6.80299 2.86551 0
-3.65916 6.46973 0
-4.43493 4.54385 0
-6.93333 6.66706 0
-6.51249 5.84485 0
8.42728 7.08298 0
8.66767 7.59172 0
-0.836607 12.4982 0
-0.690388 11.5937 0
12.8766 10.5218 0
10.3694 11.8351 0
10.2877 14.2508 0
2.11859 11.4359 0
8.12717 8.80753 0
9.44768 9.55076 0
-7.46277 8.1709 0
-7.80841 8.95587 0
-2.35502 14.7188 0
0.929205 13.8243 0
-10.2206 13.2852 0
-4.26687 12.7086 0
9.44665 9.55305 0
12.8791 9.93296 0
-10.9675 14.5593 0
-13.3969 15.0324 0
-12.8589 10.4413 0
-9.39737 10.6412 0
13.0418 18.7593 0
10.5374 17.2308 0
8.66815 11.0871 0
6.55907 11.2581 0
-9.3973 10.6387 0
-7.49128 9.88312 0
2.55542 14.3439 0
4.36347 12.8267 0
-4.61428 11.2494 0
-3.79135 10.4874 0
5.154 12.6013 0
4.22398 11.105 0
13.2598 12.2605 0
10.6035 12.4279 0
-2.97596 14.3495 0
-4.7967 13.6865 0
-10.1775 29.7072 0
0.0836347 15.2811 0
-6.71706 11.456 0
-4.69517 13.0187 0
-12.9355 11.1728 0
-9.64214 11.7078 0
6.55277 16.5364 0
8.55462 14.9926 0
-1.01626 14.1052 0
-0.634902 12.7078 0
-10.6494 18.9551 0
-13.4767 18.5896 0
5.71095 35.056 0
2.49521 15.3016 0
-3.23453 16.7745 0
-10.4963 19.3809 0
-10.9413 13.7903 0
-13.3016 13.1163 0
-6.87468 15.1984 0
-6.35888 14 0
-6.59193 12.0963 0
-7.47892 13.1151 0
13.5193 14.1124 0
11.038 14.8007 0
-11.07 20.8236 0
-13.581 21.5999 0
6.3308 12.2934 0
5.15563 12.5994 0
10.4684 16.1708 0
8.61054 15.7094 0
4.18832 13.8217 0
7.01607 16.1277 0
-2.14979 15.8888 0
-0.454137 16.2029 0
13.5328 23.7108 0
11.1236 23.631 0
0.425867 15.2144 0
1.48268 15.9765 0
11.0207 25.7833 0
4.31415 15.9452 0
13.3766 13.1802 0
10.4367 13.6805 0
-8.68671 14.8227 0
-8.76691 13.9312 0
-9.54253 12.0158 0
-7.49499 12.7555 0
-10.2589 18.4383 0
-6.53243 16.7988 0
4.01053 36.312 0
4.19286 37.9864 0
1.91968 13.6922 0
2.67268 12.2194 0
-4.09582 15.9892 0
-4.10066 15.0209 0
-13.3748 17.5675 0
-10.5469 17.8195 0
-0.0253613 17.4987 0
-0.246818 17.3723 0
8.0457 13.3303 0
7.63329 14.1555 0
8.93285 11.655 0
7.88556 12.9852 0
-11.1883 20.0906 0
-13.5974 19.7057 0
-2.69848 16.7184 0
-1.73348 17.9608 0
1.74169 16.9225 0
3.70272 16.955 0
6.61676 14.2753 0
6.40011 14.7092 0
-7.75424 18.3366 0
-7.52814 18.6544 0
-9.47725 16.1176 0
-6.76532 16.1431 0
4.27618 15.8576 0
4.96246 14.7617 0
-10.3564 22.679 0
-3.96414 18.2019 0
13.5265 25.2319 0
11.6092 25.0658 0
-12.4371 30.4085 0
-10.9918 29.4176 0
9.06991 17.6526 0
8.03721 16.3366 0
12.9428 20.2092 0
9.99748 20.5266 0
4.56644 18.1898 0
6.48185 19.1266 0
1.54855 19.1635 0
3.88845 18.5977 0
-0.257201 24.9017 0
-3.0374 23.7935 0
-3.0816 22.219 0
-4.60378 20.0709 0
-6.51944 15.7556 0
-4.27229 14.9408 0
-9.72407 21.2725 0
-8.39739 19.848 0
7.2798 24.1571 0
7.68869 21.1186 0
-13.3052 16.5981 0
-9.85051 16.7721 0
-9.82736 16.8197 0
-7.60267 17.5766 0
-0.0331529 19.3665 0
0.219005 19.0512 0
7.93048 32.7917 0
2.33279 22.238 0
11.3097 32.8498 0
10.0509 31.7949 0
-13.871 24.5036 0
-11.5577 24.1957 0
-5.65005 17.0547 0
-5.3805 18.0261 0
8.65481 18.2532 0
7.44248 18.0437 0
1.63811 17.0773 0
2.18643 18.133 0
10.7473 16.7432 0
13.4635 16.9879 0
12.8947 19.2764 0
9.06449 17.9245 0
-10.8845 24.8855 0
-4.55349 20.2879 0
-2.10091 18.8871 0
-3.61701 18.9038 0
3.84579 22.7978 0
4.56311 22.2427 0
-6.02664 18.7682 0
-5.75998 19.7201 0
4.589 17.8832 0
6.56709 17.0241 0
-1.72204 21.7945 0
0.00366122 22.9995 0
2.38252 28.4519 0
7.05058 31.3385 0
-4.09678 35.2947 0
-4.74966 36.6733 0
0.116135 35.8188 0
-1.74569 24.6564 0
-13.7431 22.5775 0
-11.4546 23.3283 0
-1.78748 19.3307 0
-3.64688 20.6779 0
-7.31968 21.76 0
-5.8525 21.7075 0
9.72321 29.4968 0
7.76948 30.3309 0
5.44156 20.8753 0
7.07888 21.5974 0
11.022 23.764 0
8.49063 23.3891 0
13.251 21.8688 0
10.9383 22.8078 0
-11.1168 28.084 0
-3.64178 21.8764 0
12.388 30.7356 0
10.6234 30.3963 0
2.65912 20.2991 0
3.95565 19.5711 0
-13.734 26.8264 0
-11.6833 26.8075 0
-0.841779 26.81 0
4.02577 23.9303 0
0.424016 20.5174 0
2.131 21.0057 0
-8.36673 19.9606 0
-7.00007 20.585 0
9.19643 19.4445 0
7.58116 19.9403 0
-1.3816 21.0042 0
-2.10243 20.0969 0
12.8873 19.3578 0
9.19803 19.4425 0
-1.95934 24.1174 0
-1.02728 22.8834 0
-5.60549 22.3392 0
-4.70963 22.6017 0
-4.11385 24.5301 0
-4.62339 24.2378 0
-13.5828 21.6098 0
-10.3856 22.3681 0
5.22843 24.3807 0
6.12939 23.665 0
0.345704 29.9839 0
1.70936 35.9362 0
-7.87938 22.8839 0
-7.29084 23.8667 0
0.78707 36.338 0
0.604304 38.0834 0
-7.10344 30.0842 0
-4.68879 30.6918 0
9.90186 22.1688 0
8.50572 22.8202 0
13.3872 26.7493 0
11.2704 26.4631 0
6.03249 22.8749 0
7.12936 22.0826 0
2.656 20.6449 0
4.48871 21.5576 0
3.36106 24.4817 0
3.75273 28.1205 0
5.38227 20.2652 0
6.52562 19.4252 0
1.86691 22.6558 0
2.17466 24.0665 0
13.0628 21.0326 0
9.98954 21.7342 0
-2.1464 33.175 0
-1.49286 31.2185 0
-9.10641 31.9291 0
-10.1407 33.1366 0
0.0318935 21.0162 0
0.556459 22.3357 0
-6.69946 23.8802 0
-6.07838 24.7518 0
-9.60693 21.7021 0
-7.32002 21.7575 0
6.89416 26.6203 0
8.87452 25.6168 0
-13.2403 28.8573 0
-11.4296 27.9351 0
-6.32182 25.4192 0
-5.73156 26.3344 0
3.12335 32.6199 0
6.0645 31.2109 0
-6.56586 32.6136 0
-6.04604 31.0631 0
6.55757 27.2556 0
4.78934 27.2466 0
2.99679 27.8883 0
1.87927 26.1052 0
-4.07469 25.4831 0
-3.4993 25.8083 0
5.50065 35.7769 0
6.4239 37.1783 0
0.409285 24.183 0
1.64641 24.5345 0
-8.51171 25.1234 0
-8.47549 25.7021 0
2.82965 34.0207 0
1.90797 34.371 0
-2.23054 25.4504 0
-1.50666 26.732 0
9.14572 31.9109 0
8.41932 30.4305 0
-2.4482 35.7989 0
-2.93821 37.3859 0
-3.04901 35.1486 0
-2.61353 33.3289 0
9.36749 25.2474 0
9.40022 24.0089 0
-8.31632 28.2112 0
-7.91209 26.0045 0
9.79011 29.0555 0
8.88711 27.0631 0
-0.246494 33.7106 0
0.61629 31.6029 0
-9.43096 23.2603 0
-9.59008 24.4871 0
10.1404 34.161 0
8.80832 32.6802 0
13.1872 28.0772 0
10.9897 27.8446 0
7.0685 33.6862 0
6.10185 32.9052 0
-0.625434 30.016 0
-0.306826 27.9621 0
-5.24727 34.0902 0
-6.33652 35.802 0
3.58168 25.7988 0
2.7399 26.4739 0
5.48408 29.5862 0
5.53481 27.6237 0
5.44425 25.5276 0
4.64754 26.2061 0
-3.60661 29.7378 0
-2.82146 29.9457 0
7.41062 25.0615 0
6.59058 25.8472 0
4.17999 29.3899 0
3.93302 32.4081 0
-8.03392 32.0088 0
-7.30467 30.1429 0
6.76313 34.7966 0
7.90835 36.1551 0
-6.41649 28.6068 0
-4.00408 28.1451 0
-4.73594 34.1367 0
-3.43077 32.8329 0
2.40382 31.9472 0
1.46358 32.2716 0
-11.4221 31.8106 0
-9.98802 30.5517 0
-8.72099 34.2516 0
-7.66873 32.6462 0
0.353824 34.17 0
1.21827 33.8233 0
1.2503 28.263 0
1.04458 27.9284 0
4.81313 34.2056 0
4.96808 33.3975 0
-1.52469 35.5458 0
-1.20476 34.0756 0
-6.78283 27.7433 0
-7.70307 27.5493 0
-3.55209 32.0187 0
-2.50514 31.0144 0
0.0150421 25.8535 0
1.37409 26.4348 0
-1.15904 37.8345 0
-0.833259 36.1687 0
7.73631 28.6998 0
8.9141 28.3625 0
10.6748 27.2404 0
9.09256 26.8891 0
-10.9371 25.8848 0
-9.47396 26.3392 0
3.43624 35.9216 0
3.59096 34.6468 0
-8.87007 28.1366 0
-9.52983 27.298 0
-1.33903 31.6357 0
-0.182721 32.0183 0
-1.97359 28.991 0
-1.0764 29.1075 0
-13.8148 25.5819 0
-11.1472 25.477 0
7.35023 29.4656 0
5.77421 29.26 0
2.39791 36.4185 0
2.36507 38.1486 0
12.6614 29.9429 0
10.6374 28.7741 0
-5.70078 33.1228 0
-4.48899 31.7186 0
3.68556 30.2087 0
2.79266 30.3603 0
-3.37148 27.5524 0
-2.38167 27.8208 0
5.8963 31.4072 0
4.39544 31.2837 0
-9.4785 30.7104 0
-8.05418 29.6081 0
0.825923 30.5525 0
2.43288 30.0323 0
-7.51022 35.0584 0
-6.27908 33.0935 0
-5.43065 28.7521 0
-5.06295 30.5364 0
-4.69263 27.9625 0
-5.16436 26.4176 0
7.21442 33.6501 0
6.4603 31.2621 0
-2.73525 33.255 0
-2.14271 31.0875 0
9.61615 34.655 0
7.93738 32.7908 0
-0.927785 30.4352 0
0.502607 31.662 0
CELLS 300 2007
5 0 160 161 4 5
6 3 2 6 7 8 9
6 3 9 144 145 4 161
8 14 15 156 5 4 145 12 13
8 7 16 178 17 147 18 19 8
7 21 10 144 9 8 19 20
6 153 22 23 24 124 125
8 25 26 13 12 11 124 24 127
7 29 168 14 13 26 27 28
6 17 30 31 32 146 147
7 18 33 148 149 152 20 19
5 20 152 153 125 21
7 22 37 163 174 175 40 23
5 24 23 40 126 127
5 26 25 192 193 27
7 28 27 193 170 171 47 173
9 146 32 186 48 49 50 34 148 33
5 35 128 129 52 36
6 36 52 53 162 163 37
6 38 54 55 139 130 131
7 40 175 132 133 59 41 126
6 42 41 59 196 197 43
7 44 43 197 184 185 195 45
8 49 64 65 177 66 134 51 50
7 51 134 135 136 53 52 129
6 53 136 137 55 54 162
8 55 137 70 165 71 233 138 139
7 57 56 140 231 141 142 58
7 59 133 58 142 143 60 196
6 61 60 143 77 198 199
5 65 80 81 176 177
6 67 200 201 208 69 68
7 69 208 209 216 164 165 70
5 71 225 264 265 233
8 73 72 236 291 333 237 241 215
5 92 93 210 211 91
8 77 76 210 93 189 154 155 198
5 2 1 96 97 6
5 7 6 97 98 16
5 17 178 179 99 30
4 187 101 48 186
5 49 48 101 102 64
5 65 64 102 103 80
6 82 176 81 104 105 83
4 83 105 190 191
5 121 164 216 217 120
5 214 254 255 122 123
5 91 90 109 110 92
5 110 188 189 93 92
5 78 95 112 113 79
5 62 79 113 114 63
5 195 185 63 114 194
4 172 173 47 116
5 14 168 169 118 15
5 5 156 157 119 0
5 160 0 119 180 181
4 31 30 99 100
4 81 80 103 104
5 293 284 248 249 292
4 95 94 111 112
5 182 183 116 47 171
6 120 204 205 298 224 121
5 122 242 243 282 123
5 124 11 10 21 125
6 126 41 42 192 25 127
5 128 34 50 51 129
6 130 203 56 57 39 131
5 132 39 57 58 133
5 134 66 67 68 135
6 136 135 68 69 70 137
8 138 207 167 247 202 203 130 139
5 140 73 215 230 231
6 142 141 75 76 77 143
5 144 10 11 12 145
4 146 33 18 147
5 148 34 128 35 149
7 150 221 226 227 74 151 240
7 152 149 35 36 37 22 153
5 154 94 95 78 155
4 156 15 118 157
4 356 357 222 223
6 160 181 1 2 3 161
5 162 54 38 174 163
6 164 121 224 225 71 165
7 166 445 430 431 435 387 337
4 168 29 117 169
6 170 44 45 46 182 171
5 172 117 29 28 173
6 174 38 131 39 132 175
6 176 82 200 67 66 177
4 178 16 98 179
4 180 96 1 181
4 182 46 115 183
6 184 61 199 62 63 185
5 186 32 31 100 187
5 188 111 94 154 189
5 190 106 85 84 191
6 192 42 43 44 170 193
5 194 115 46 45 195
5 196 60 61 184 197
6 198 155 78 79 62 199
6 200 82 83 191 84 201
6 202 72 73 140 56 203
4 204 234 235 205
6 206 261 87 266 267 245
5 208 201 84 85 209
6 210 76 75 74 227 211
6 167 213 274 239 246 247
6 214 123 282 283 259 281
5 216 209 85 106 217
5 218 89 88 108 219
5 220 109 90 226 221
5 222 358 359 320 223
5 224 298 299 264 225
5 226 90 91 211 227
5 228 288 289 229 268
6 230 151 74 75 141 231
7 232 229 289 207 138 233 265
5 234 278 279 86 235
7 236 212 270 302 252 290 291
6 253 248 284 308 309 335
6 240 151 230 215 241 258
5 242 220 221 150 243
6 244 277 312 313 307 269
6 246 212 236 72 202 247
5 248 253 300 301 249
8 294 295 271 239 274 275 304 354
6 252 302 303 362 363 315
4 254 218 219 255
5 256 280 281 259 257
6 258 241 237 257 259 283
4 260 107 87 261
5 448 449 530 531 580
7 264 299 296 297 306 232 265
6 356 223 320 321 267 266
6 268 229 232 306 307 313
5 270 212 246 239 271
5 272 316 317 388 273
6 274 213 288 228 251 275
6 276 433 552 553 457 488
5 278 260 261 206 279
6 280 89 218 254 214 281
6 282 243 150 240 258 283
5 284 293 340 341 308
4 286 472 473 287
5 288 213 167 207 289
7 333 291 290 350 285 311 332
5 292 338 339 340 293
6 328 377 412 413 371 474
6 296 86 279 206 245 297
6 298 205 235 86 296 299
4 300 262 263 301
5 302 270 271 295 303
6 304 275 251 312 277 305
7 306 297 245 267 321 269 307
7 308 341 285 350 351 366 309
7 310 88 89 280 256 332 311
5 312 251 228 268 313
7 314 419 454 455 382 424 496
5 316 432 433 276 317
5 318 458 459 392 319
8 320 359 352 353 369 244 269 321
5 322 444 445 166 323
5 324 368 369 353 325
5 326 343 294 354 355
6 376 534 535 479 423 426
6 330 329 416 417 415 393
5 332 256 257 237 333
6 334 262 300 253 335 404
6 336 421 434 435 431 389
5 338 108 88 310 339
6 340 339 310 311 285 341
7 380 362 303 295 294 343 342
5 344 158 590 591 373
5 346 498 499 482 347
4 348 378 379 349
5 350 290 252 315 351
7 352 411 406 407 441 325 353
7 354 304 305 368 324 327 355
5 356 266 87 107 357
5 358 410 411 352 359
6 360 349 379 314 496 497
7 362 380 409 381 361 331 363
6 364 345 403 436 437 365
6 366 351 315 363 331 367
5 368 305 277 244 369
6 408 450 451 371 413 370
6 438 508 509 469 475 443
5 486 484 485 375 374
6 494 534 376 549 540 541
5 378 418 419 314 379
6 380 342 402 450 408 409
7 382 455 405 367 331 361 383
5 384 395 347 482 483
6 386 440 441 407 337 387
5 388 317 276 488 489
4 390 272 273 391
6 392 459 399 554 555 559
4 394 346 347 395
5 396 326 355 327 397
5 398 564 565 554 399
5 400 546 547 537 505
7 402 342 343 326 396 436 403
6 404 335 309 366 367 405
5 406 323 166 337 407
6 408 370 330 393 381 409
5 410 322 323 406 411
5 412 329 330 370 413
6 414 383 361 381 393 415
5 542 543 491 460 461
6 418 263 262 334 454 419
6 420 401 364 365 434 421
6 582 583 575 528 529 495
6 424 382 383 414 452 425
5 426 423 568 569 427
5 428 524 586 587 465
7 430 391 273 388 489 389 431
5 432 500 501 552 433
6 434 365 437 386 387 435
6 436 396 397 440 386 437
6 438 401 420 512 513 508
6 440 397 327 324 325 441
6 442 345 364 401 438 443
5 444 390 391 430 445
6 446 487 592 593 447 560
5 585 572 506 507 584
6 450 402 403 345 442 451
5 452 414 415 417 453
5 454 334 404 405 455
6 512 420 421 336 516 517
4 458 398 399 459
7 460 453 417 416 470 589 461
7 575 583 372 468 439 518 574
6 464 533 520 521 428 465
5 566 567 511 466 550
7 468 372 536 537 547 469 509
7 470 416 329 412 377 480 471
5 472 250 522 523 473
6 474 371 451 442 443 475
7 476 425 452 453 460 491 477
6 556 557 538 250 472 286
6 480 377 328 546 400 481
7 482 499 595 344 373 385 483
5 427 548 549 376 426
6 486 374 526 527 592 487
6 488 457 516 336 389 489
7 490 558 559 555 477 491 543
7 492 384 483 385 566 550 551
5 494 541 446 560 561
5 496 424 425 476 497
4 498 594 595 499
4 500 570 571 501
6 522 250 538 539 503 502
8 596 447 593 545 515 562 563 504
5 526 374 375 507 506
6 508 513 467 439 468 509
6 439 467 511 567 510 518
7 512 517 456 466 511 467 513
6 514 525 576 577 562 515
6 516 457 553 493 456 517
6 518 510 463 578 579 574
5 520 448 580 581 521
6 522 502 590 158 159 523
6 471 576 525 588 589 470
6 526 506 572 573 544 527
6 528 462 478 479 535 529
5 530 318 319 238 531
5 532 449 448 520 533
7 534 494 561 597 495 529 535
6 536 422 504 563 505 537
6 538 557 478 462 519 539
6 540 484 486 487 446 541
7 542 524 428 521 581 490 543
6 544 573 429 514 515 545
6 546 328 474 475 469 547
5 548 485 484 540 549
5 550 466 456 493 551
7 552 501 571 492 551 493 553
7 554 565 360 497 476 477 555
6 479 478 557 556 568 423
5 558 238 319 392 559
5 560 447 596 597 561
6 562 577 481 400 505 563
5 564 348 349 360 565
7 566 385 373 591 463 510 567
5 568 556 286 287 569
6 570 394 395 384 492 571
7 572 585 464 465 587 429 573
6 574 579 519 462 528 575
5 576 471 480 481 577
5 578 503 539 519 579
6 580 531 238 558 490 581
5 582 422 536 372 583
5 584 532 533 464 585
6 587 586 588 525 514 429
6 588 586 524 542 461 589
6 590 502 503 578 463 591
5 592 527 544 545 593
5 594 159 158 344 595
6 596 504 422 582 495 597
CELL_TYPES 300
7
7
7
7
7
7
7
7
7
7
7
7
7
7
7
7
7
7
7
7
7
7
7
7
7
7
7
7
7
7
7
7
7
7
7
7
7
7
7
7
7
7
7
7
7
7
7
7
7
7
7
7
7
7
7
7
7
7
7
7
7
7
7
7
7
7
7
7
7
7
7
7
7
7
7
7
7
7
7
7
7
7
7
7
7
7
7
7
7
7
7
7
7
7
7
7
7
7
7
7
7
7
7
7
7
7
7
7
7
7
7
7
7
7
7
7
7
7
7
7
7
7
7
7
7
7
7
7
7
7
7
7
7
7
7
7
7
7
7
7
7
7
7
7
7
7
7
7
7
7
7
7
7
7
7
7
7
7
7
7
7
7
7
7
7
7
7
7
7
7
7
7
7
7
7
7
7
7
7
7
7
7
7
7
7
7
7
7
7
7
7
7
7
7
7
7
7
7
7
7
7
7
7
7
7
7
7
7
7
7
7
7
7
7
7
7
7
7
7
7
7
7
7
7
7
7
7
7
7
7
7
7
7
7
7
7
7
7
7
7
7
7
7
7
7
7
7
7
7
7
7
7
7
7
7
7
7
7
7
7
7
7
7
7
7
7
7
7
7
7
7
7
7
7
7
7
7
7
7
7
7
7
7
7
7
7
7
7
7
7
7
7
7
7
7
7
7
7
7
7
CELL_DATA 300
SCALARS cell_division_count float
LOOKUP_TABLE default
1
0
1
0
0
0
1
0
0
1
1
1
1
1
1
1
0
1
1
1
1
1
1
0
1
1
1
1
1
1
1
1
2
4
3
1
1
0
0
1
1
0
0
0
1
2
3
0
1
0
0
1
1
1
1
1
0
0
3
0
1
2
3
1
1
1
1
1
1
1
2
2
1
1
1
1
2
1
1
1
3
1
1
2
9
1
1
1
1
1
1
1
1
1
1
1
1
1
1
1
1
1
2
3
5
2
1
3
5
2
2
2
5
3
2
4
2
3
5
5
6
3
3
6
3
4
6
9
3
5
4
4
8
5
6
6
5
4
5
14
5
5
5
7
5
4
6
4
10
5
3
4
6
6
6
7
6
6
11
7
8
7
6
7
8
12
11
6
8
9
4
7
8
12
6
7
7
8
8
3
6
12
10
11
9
7
11
13
8
12
8
11
10
11
9
9
5
14
6
10
8
13
10
10
8
11
6
10
11
14
8
11
12
11
8
12
9
8
9
11
13
9
11
6
14
10
11
12
11
13
8
12
12
11
14
14
10
6
12
13
11
11
11
9
12
9
14
14
12
12
7
9
12
14
8
13
13
13
13
13
12
12
6
12
13
11
8
9
12
14
12
12
14
13
13
9
14
14
14
11
14
13
14
8
14
8
9
13
12
13
12
12
12
10
12
12
12
14
7
13
SCALARS cell_time float
LOOKUP_TABLE default
1741
2.22229e+13
1761
4.48239e+13
2.67348e+11
1.25633e+10
1771
2.68224e+09
9.19769e+11
1761
1761
1751
1721
1771
1691
1731
1.22775e+06
1771
1741
1771
1771
1671
1711
25553.4
1771
1771
1771
1771
1771
1661
1721
1661
1621
1361
1511
1611
1751
1.00108e+18
2.94533e+15
1721
1711
106853
3115.76
1827.34
1701
1601
1401
1818.01
1711
4469.01
2086.18
1691
1731
1741
1751
1721
1.12104e+13
22936.3
1191
3807.96
1721
1641
1461
1771
1771
1771
1771
1771
1771
1771
1651
1531
1771
1761
1761
1761
1591
1751
1751
1751
891
1741
1741
1601
521
1741
1731
1731
1721
1721
1721
1721
1721
1711
1711
1711
1701
1691
1691
1671
1661
1661
1651
1521
1341
1621
1611
1461
1241
1601
1601
1601
891
1181
1591
1211
1531
1521
1251
1211
1101
1481
1461
1091
1461
1181
1191
881
1401
1251
1381
1381
161
1191
1081
1111
1311
1091
1281
111
1251
1251
1241
941
371
1211
981
961
611
1191
1181
1181
1181
1171
1111
911
1101
1091
451
521
441
901
491
831
901
151
581
981
971
521
961
941
941
1
301
771
911
631
901
891
621
311
761
521
841
831
461
251
331
131
581
631
751
341
521
321
721
111
701
701
101
121
671
641
631
631
621
611
591
131
581
571
41
561
91
11
521
301
521
521
241
521
511
491
1
31
461
461
451
231
441
441
81
221
101
151
381
221
361
351
111
351
341
121
201
321
111
121
111
311
1
91
141
111
261
251
251
241
61
231
51
51
221
11
91
181
161
161
151
151
141
131
131
131
121
121
121
111
111
111
111
1
111
101
101
91
91
91
81
61
51
51
41
31
11
11
1
1
1
1
SCALARS cell_area float
LOOKUP_TABLE default
3.24239
3.30056
3.29397
3.35672
3.35183
3.34442
3.32797
3.37614
3.34943
3.28212
3.33767
3.28435
3.38641
3.32042
3.30704
3.33068
3.39969
3.29002
3.34668
3.39504
3.39235
3.34127
3.3405
3.3736
3.36069
3.37717
3.43685
3.404
3.39241
3.33096
3.24811
3.29937
3.34741
3.32947
3.44569
3.25198
3.34744
3.25287
3.26139
3.24891
3.23752
3.27885
3.2628
3.27987
3.22154
3.28832
3.26137
3.26503
3.26047
3.2493
3.2689
3.27431
3.21698
3.2575
3.24501
3.24241
3.21001
3.21819
3.27737
3.19748
3.24673
3.30854
3.27357
3.28166
3.33881
3.28734
3.39706
3.35253
3.28282
3.35993
3.44783
3.35242
3.35823
3.28766
3.24868
3.27653
3.34271
3.3522
3.23303
3.2224
3.2283
3.25902
3.33545
3.32848
3.35729
3.22303
3.29756
3.2527
3.37126
3.2892
3.22482
3.204
3.21665
3.30526
3.25202
3.24623
3.26029
3.32534
3.26389
3.3019
3.29138
3.26552
3.39819
3.23815
3.2991
3.24396
3.33016
3.38528
3.29302
3.28031
3.26516
3.2742
3.28253
3.29191
3.2489
3.31179
3.35726
3.40094
3.26237
3.42505
3.30044
3.35219
3.27605
3.33928
3.40175
3.27302
3.4346
3.38785
3.22136
3.28012
3.33436
3.21509
3.28299
3.36975
3.3206
3.34641
3.35954
3.27285
3.36172
3.29754
3.25747
3.28535
3.31724
3.27453
3.23263
3.34619
3.39307
3.27789
3.32653
3.31695
3.30244
3.24475
3.3626
3.3506
3.38286
3.38361
3.34096
3.30143
3.34697
3.28323
3.26232
3.40592
3.29747
3.3107
3.35386
3.29419
3.33775
3.32562
3.29655
3.33875
3.27966
3.32571
3.41603
3.32525
3.28017
3.23929
3.35502
3.3654
3.37258
3.24866
3.29963
3.30442
3.41484
3.35168
3.38114
3.30767
3.34865
3.34059
3.29753
3.29229
3.28795
3.38495
3.38808
3.2504
3.34117
3.26352
3.24645
3.28369
3.23054
3.32352
3.27237
3.27949
3.39295
3.34648
3.29673
3.36309
3.29775
3.30639
3.36367
3.30045
3.31334
3.34304
3.30694
3.33607
3.29803
3.27511
3.33815
3.28708
3.34368
3.34309
3.34339
3.33561
3.34599
3.29103
3.33573
3.30986
3.36181
3.31042
3.29522
3.3349
3.22498
3.36148
3.35166
3.29206
3.27104
3.35501
3.35557
3.28328
3.34109
3.35608
3.27406
3.30863
3.2954
3.30265
3.26497
3.31515
3.34375
3.32407
3.27236
3.30014
3.29902
3.25763
3.28847
3.31883
3.30015
3.34342
3.31942
3.3544
3.30545
3.30869
3.30472
3.25391
3.29856
3.31608
3.30876
3.29416
3.27753
3.29219
3.29709
3.30549
3.28269
3.28762
3.32854
3.31929
3.3232
3.30216
3.2729
3.3317
3.34268
3.28747
3.24833
3.34053
3.29738
3.27606
3.30259
3.28359
3.30944
3.33672
3.29985
3.27746
3.26142
3.27933
3.28944
3.30621
3.30449
3.31129
3
3.27236
0
155
SCALARS cell_perimeter float
LOOKUP_TABLE default
6.93038
6.94276
6.96801
7.19546
7.12684
6.82551
7.06449
7.60815
6.9346
6.9302
7.38537
7.00022
6.81018
7.21647
7.03675
6.79367
7.18002
6.96752
6.94462
7.08201
6.92038
7.23346
7.22706
7.54212
7.54869
6.94208
8.16103
7.01703
6.86778
7.05527
6.95542
7.02597
8.26114
7.02621
7.03259
7.31916
7.86849
7.52603
7.83365
7.64322
8.28278
8.6792
8.19556
7.7618
7.38244
9.31797
7.86735
7.63354
8.0479
7.66061
8.13254
8.4535
7.79228
8.08286
7.67874
7.21915
7.43997
7.3922
8.0474
7.32723
7.73664
9.34992
8.44902
7.03511
7.11228
7.21982
6.93157
7.03683
7.14678
6.87896
7.98687
7.03373
7.13693
7.08441
7.24228
7.2125
7.81514
7.23706
6.93694
7.88036
8.01294
6.79116
7.00903
7.99545
7.29968
7.98927
6.82482
7.99105
7.01458
6.99679
7.80211
7.31575
7.66071
7.11199
7.94112
7.97281
7.35573
6.93381
8.2378
7.15958
7.1556
6.935
7.18996
7.90961
7.07396
7.01618
6.83616
7.15607
7.25797
8.47171
8.38998
8.50856
9.33231
7.19745
7.24564
7.08576
6.92862
7.68201
8.05987
6.88766
7.62381
7.20088
8.8363
7.30688
7.27929
7.85688
7.04452
7.01083
7.61764
7.00249
7.28345
7.68323
7.15013
7.46818
7.13133
7.19674
7.06243
7.45156
6.86741
6.96898
8.01982
6.85946
7.5637
7.54602
7.31863
7.2199
7.50586
8.55481
6.90355
7.23027
7.21126
7.70472
7.07873
7.30073
6.91088
6.90472
7.92716
7.05047
7.57204
7.23649
7.21717
7.19211
8.36259
7.38762
7.02346
6.91012
7.05279
7.30861
7.3072
6.96487
8.89345
7.88714
7.12358
7.1074
7.14353
7.54601
7.08827
7.15393
7.48346
7.80727
9.66651
6.79741
7.27594
7.14248
6.9195
7.42368
6.88694
6.9013
7.07619
6.89428
8.26334
7.02835
7.55307
6.94918
6.95424
6.97309
7.61373
6.95241
7.32386
7.02739
7.61297
6.91388
7.32312
7.10206
7.07044
6.94883
8.8546
6.96321
7.01242
7.04083
8.81301
6.88424
6.95486
7.02893
7.09393
7.00387
7.07933
7.34941
7.09098
7.25164
6.83789
7.20629
6.95025
8.16644
6.93719
7.3846
7.05337
7.07504
7.33852
6.80846
7.3287
6.89258
6.89399
7.12721
7.05193
6.88091
6.87319
7.0925
6.89955
7.03811
6.84878
6.85432
6.96788
7.09336
7.05248
6.86897
6.87121
6.86882
6.97796
6.98333
7.27644
7.47942
6.77357
6.82572
7.20079
6.85436
6.93966
6.75854
6.86232
7.13356
7.05322
7.07496
7.24012
7.0398
7.08843
6.84852
7.1213
7.12453
6.93167
7.05461
6.80793
7.01353
6.96171
6.85005
6.92544
7.08138
7.14945
6.87485
7.00873
6.82544
7.08523
6.8329
6.86053
7.69414
6.94475
7.09517
7.58427
7.19469
6.86551
6.9613
6.90172
7.22372
7.10649
7.35553
7.1042
6.96176
17
3.27737
0
117
SCALARS cell_frequency_modifier float
LOOKUP_TABLE default
4.76714e+17
6.12242e+14
3.76717e+14
1.70724e+14
4.65583e+13
4.5455e+12
1.81424e+10
3.9873e+11
4.73807e+13
3.64647e+15
4.77977e+11
1.98474e+12
2.79888e+08
6.88682e+09
1.95863e+12
1.48184e+13
2.35056e+11
1.0366e+10
1.73468e+08
1.69022e+06
2.39591e+08
3.7125e+09
6.96512e+10
8.50804e+09
2.04094e+08
9.56855e+06
1.13561e+06
2.22572e+06
7.00048e+07
4.03376e+08
2.36959e+12
1.6118e+08
5.12216e+06
508684
17836.9
7.20202e+09
1.26654e+08
6.43455e+18
1.54395e+18
1.74706e+17
8.26842e+14
1.10263e+14
3.40914e+13
6.29621e+11
1.04918e+11
1.90186e+07
1.40012e+07
3.28782e+09
2.24444e+10
6.05445e+12
2.07037e+13
7.99426e+13
1.05576e+17
1.31923e+18
1.10203e+19
10000
5.55199e+16
7.15068e+12
59865.7
1.23487e+12
1.55068e+16
1.32945e+06
5.10932e+07
8.61413e+13
2.19924e+10
9.80829e+10
1.13218e+06
1.52965e+07
1.61723e+10
1.30693e+07
190268
280360
1.90248e+07
6.17512e+13
5.24703e+14
7.28801e+12
1.20451e+06
5.20631e+09
3.10461e+11
7.45559e+18
127914
7.14044e+17
3.28017e+07
1.81418e+06
14.1524
1.03449e+18
5.67109e+12
1.87947e+17
1.57346e+07
7.31779e+09
9.94317e+17
10000
4.34241e+15
2.26585e+10
3.73258e+15
1.04319e+11
1.21295e+10
2.25388e+11
4.02706e+14
4.4699e+09
1.66146e+10
5.32448e+10
152270
6.33887e+07
14620.9
5.77751e+09
1.30119e+07
14637.7
310863
1.76127e+09
1.02635e+06
5.4784e+08
194358
1.43584e+06
1.1692e+09
65323.3
1.6453e+06
145857
1.44491e+07
2165.98
393.203
211253
1.6845e+08
3602.38
21454.2
24292.2
956.226
263.266
3.77594e+06
3.41795e+06
67025.2
1.29592e+06
19.4121
38189.2
1775.89
22506.4
4040.86
920.757
6841.91
5.75833
4.32064e+06
199465
395676
91386.7
158.237
79937.7
1650.53
171683
6.57932
32408.2
236308
9512.99
784.701
1760.94
3871.92
273.875
3806.92
19220.9
11.7136
61.9992
159.679
454.932
112.144
550.423
248.564
2.25966
8.50358
12083
216.405
8.57943
410051
1548.68
145.36
0.632878
100.141
1288.72
591.867
101.692
341.826
385823
457.87
11.6423
51.9301
16.438
110.521
1830.58
14.2539
2.79226
2.09073
2.55242
97.941
39.4376
24.4123
113.961
45.5822
719.32
1865.96
22.7877
106.509
182.373
395.561
283.081
44.7755
84.8543
174.868
19.592
243.503
16.8632
15.8164
3.69751
33.9781
7.135
0.953143
11.541
2.3129
132.995
8.34612
14.9335
16.8457
43.8788
2.83907
147.285
6.5908
102.37
0.540724
0.81958
15.6003
10.3841
125.676
3.93694
230.907
1.97925
0.60417
2.60954
180.101
0.946728
2.61433
14.6314
6.82588
2.44148
119.205
3.80265
1.93621
1.59556
104.801
5.69817
1.23276
0.914402
100.002
13.3634
1.36324
171.051
3.57145
0.875229
1.38204
1.28667
1.18465
1.23988
1.56182
3.1131
1.12776
112.93
1.50492
2.08938
0.798039
2.03214
120.863
2.34993
1.68189
1.47203
49.9676
4.84914
0.954684
0.769045
3.58797
1.56923
231.37
1.17962
2.483
5.7023
176.917
0.54366
3.4462
667.663
1.26449
15.6374
1.06176
0.540908
1.30511
318.48
101.141
141.553
4.3922
0.90516
1.42283
1.70995
1
1
1
1
SCALARS cell_area_modifier float
LOOKUP_TABLE default
100
1.11278
2.09929
0.369538
0.396783
0.43787
0.596774
0.332211
0.407713
100
0.518389
7.21951
0.319654
0.663677
0.855491
0.568138
0.303279
2.93069
0.422254
0.308012
0.314559
0.469097
0.492512
0.334086
0.356197
0.330357
0.289912
0.298688
0.312896
0.562738
100
1.28139
0.416315
0.579256
0.288499
100
0.413408
100
100
100
100
100
100
100
100
3.65432
100
100
100
100
100
100
100
100
100
100
100
100
100
100
100
0.831461
100
100
0.500846
5.28571
0.306418
0.386423
26.9091
0.358354
0.2871
0.388962
0.362745
4.16901
100
100
0.461778
0.391534
100
100
100
100
0.542125
0.590818
0.364982
100
1.47264
100
0.3379
3.25275
100
100
100
0.936709
100
100
100
0.621849
100
1.07246
2.66667
100
0.30484
100
1.30973
100
0.573643
0.32139
2.17647
100
100
100
296
2.55172
100
0.738155
0.367246
0.301733
100
0.292779
1.15625
0.394141
100
0.496644
0.300203
100
0.291339
0.317938
100
100
0.552239
100
18.5
0.339839
0.656319
0.428365
0.360536
100
0.351962
1.5102
100
6.43478
0.694836
100
100
0.431487
0.309623
100
0.602851
0.703088
1.03497
100
0.347826
0.404925
0.326711
0.324918
0.480519
1.09225
0.419263
14.0952
100
0.297189
1.5914
0.757033
0.383917
1.96026
0.513889
0.615385
1.78313
0.505119
100
0.609053
0.294235
0.62845
100
100
0.37659
0.341801
0.335982
100
1.25424