# vtk DataFile Version 2.0
2D-vertex
ASCII
DATASET UNSTRUCTURED_GRID
POINTS 950 float
0.586266 -4.00108 0
3.0353 -3.7868 0
3.42155 -2.83685 0
2.39272 -1.77145 0
0.125171 -1.63123 0
-0.589615 -3.12232 0
3.94986 -2.80137 0
4.52103 -1.94511 0
3.58412 -0.432557 0
2.53863 -0.749714 0
1.36146 0.50671 0
-0.327568 0.978339 0
-1.0886 -0.29911 0
-1.24428 -0.33802 0
-1.7578 -2.00907 0
-1.24592 -2.89217 0
5.09249 -2.10027 0
5.90154 -1.21658 0
4.0613 0.314434 0
3.79184 0.246871 0
2.91175 1.20352 0
1.84707 1.11325 0
1.18395 4.74029 0
0.33147 4.71324 0
-0.485035 2.83227 0
-1.69177 1.91506 0
-1.60229 0.00965029 0
-2.8932 -0.284961 0
-3.40317 -1.31994 0
-3.09962 -2.02972 0
6.96953 -1.20061 0
7.58837 -0.473525 0
7.40554 0.838156 0
5.18475 2.00093 0
5.65052 2.58263 0
3.2998 3.90975 0
2.53047 5.19584 0
1.64594 5.35019 0
0.714838 8.53775 0
-0.870957 8.57588 0
-0.54433 5.52113 0
-2.04073 4.57326 0
-3.08833 3.02026 0
-4.04465 3.05078 0
-4.7785 1.63606 0
-6.18722 1.3229 0
-6.47038 0.257032 0
-4.9511 -1.09154 0
7.82463 1.46786 0
7.4763 2.50661 0
6.72165 2.92375 0
5.97153 4.9842 0
3.61861 6.16731 0
3.54333 7.04199 0
2.09061 8.66022 0
2.62386 9.36788 0
-1.84117 9.95029 0
-1.74008 9.0317 0
-2.97863 7.68457 0
-2.64296 5.53303 0
-4.27529 5.83332 0
-5.65524 4.50876 0
-7.569 3.00864 0
-7.42395 2.47549 0
8.38903 2.92298 0
8.38898 2.92548 0
6.88507 4.9681 0
7.31032 6.173 0
6.02916 7.4409 0
6.23401 8.12543 0
5.43037 9.14225 0
5.15255 9.65868 0
-2.56356 12.2507 0
-2.82415 11.9057 0
-5.99297 8.96573 0
-5.32132 8.18582 0
-6.04063 6.80379 0
-5.95796 6.64209 0
-8.5556 3.51281 0
-8.40377 3.16038 0
9.91787 3.24635 0
10.2254 4.20453 0
9.41249 5.1802 0
10.5745 5.61714 0
10.2512 7.13924 0
10.4309 7.85097 0
9.57271 12.4808 0
10.5608 14.5666 0
-9.57002 13.9688 0
-9.56975 13.9663 0
-9.96848 8.09782 0
-9.67461 7.58074 0
-10.0152 6.94368 0
-9.26987 5.8537 0
-10.0793 4.59299 0
-9.61372 3.6142 0
3.97398 -5.63228 0
5.17146 -5.06679 0
6.00257 -4.64852 0
8.32939 -3.01644 0
9.59791 -1.55869 0
10.8898 0.801377 0
10.9806 0.974389 0
11.6617 2.06042 0
12.4105 4.00416 0
12.6052 4.79548 0
12.7118 8.32125 0
13.1521 15.0234 0
-13.1675 14.4066 0
-12.5683 8.04623 0
-12.4785 6.7686 0
-12.0918 4.2265 0
-11.2045 2.29209 0
-10.3345 1.19934 0
-9.72219 0.482552 0
-8.80023 -0.832621 0
-6.84266 -2.94488 0
-4.7484 -4.31658 0
-2.63263 -5.27974 0
0.382149 -6.05015 0
12.5449 9.80115 0
8.44989 9.9406 0
-12.8493 10.5063 0
-9.94606 11.3529 0
-0.229943 2.49558 0
1.06224 2.6082 0
-1.78831 4.5443 0
-1.01688 2.81897 0
4.55371 4.12483 0
4.94608 5.05159 0
0.400665 10.1449 0
0.186205 9.02777 0
-1.06524 6.87031 0
-2.24651 6.56512 0
5.97053 4.98648 0
5.10889 6.95469 0
4.12691 7.44556 0
4.12147 8.81305 0
2.08996 10.3941 0
2.08798 10.3926 0
-2.32575 10.1671 0
-3.88789 8.37893 0
-3.44047 7.69525 0
-4.4039 6.41823 0
1.4888 -0.135554 0
0.0524331 -1.15014 0
6.57888 1.07211 0
5.50851 -0.481933 0
5.18271 2.00238 0
3.15119 2.78879 0
-8.83877 9.74242 0
-5.81098 9.66295 0
3.14869 2.78883 0
1.71119 3.44863 0
-9.28385 5.79289 0
-7.87078 5.1933 0
-0.620403 -3.13856 0
-0.996956 -5.8294 0
15.0207 31.0069 0
17.5834 31.0069 0
1.39315 -3.6464 0
1.48197 -2.18976 0
2.53886 7.41269 0
1.37539 6.37737 0
8.27833 9.4631 0
5.43055 9.14476 0
8.75163 20.2236 0
-0.0612371 12.0957 0
-2.53806 -2.27939 0
-3.20895 -5.04608 0
-4.19955 0.722004 0
-5.08079 -0.470252 0
-5.39986 -3.94484 0
-4.35797 -1.47985 0
0.446849 6.83911 0
-0.460606 6.39918 0
9.3843 5.03792 0
7.80731 4.22295 0
5.72402 -1.75197 0
7.47452 -3.72081 0
1.93735 -6.09704 0
1.94309 -4.07027 0
-6.03077 -0.359463 0
-7.60583 -2.25905 0
-5.24623 3.41425 0
-6.56299 2.15676 0
7.668 0.97348 0
10.1569 -0.665751 0
-12.3482 5.61548 0
-9.29458 5.81266 0
12.8514 6.84368 0
10.7594 6.62901 0
-2.65404 2.08627 0
-3.55206 0.717954 0
-9.29505 -0.0829354 0
-6.54533 1.58719 0
-3.46963 5.33308 0
-4.21176 3.34233 0
-6.70493 5.38756 0
-6.27944 4.59369 0
8.27723 6.35307 0
8.47643 6.83724 0
-0.871825 11.9318 0
-0.634452 10.8092 0
12.5493 9.81021 0
9.87325 11.0763 0
9.72924 13.3617 0
1.77264 10.967 0
7.8513 8.10259 0
9.05482 8.82385 0
-7.18531 6.89601 0
-7.52851 7.64525 0
-2.32005 14.2347 0
0.666143 13.4118 0
-9.8825 11.848 0
-4.04002 11.7372 0
9.05344 8.82595 0
12.5697 9.34767 0
-10.6719 12.9951 0
-13.223 13.4255 0
-12.623 9.02413 0
-9.10176 9.30027 0
12.5918 17.7665 0
9.97635 16.0564 0
8.1198 10.3809 0
5.988 10.5489 0
-9.10182 9.29774 0
-7.21887 8.61734 0
2.11403 13.9434 0
3.87051 12.3037 0
-4.32992 10.1428 0
-3.56354 9.49526 0
4.58751 12.053 0
3.69619 10.5045 0
12.8785 11.4961 0
10.0745 11.615 0
-2.93451 13.806 0
-4.48177 12.6969 0
-13.4799 26.2253 0
-0.0666488 15.0252 0
-6.40148 10.2056 0
-4.34927 11.9465 0
-12.703 9.73922 0
-9.29315 10.3355 0
5.66388 16.1299 0
7.86342 14.1923 0
-1.22426 13.788 0
-0.702014 12.1355 0
-10.2935 17.2386 0
-13.4799 16.2515 0
16.6335 37.2524 0
2.03245 15.0401 0
-3.01825 16.4777 0
-10.233 17.6335 0
-10.6279 12.326 0
-13.0791 11.5372 0
-6.49246 13.9935 0
-5.93189 12.8998 0
-6.27793 10.9545 0
-7.08569 11.8816 0
13.1021 13.194 0
10.5133 13.9253 0
-11.1223 18.7462 0
-14.0828 18.7076 0
5.77 11.6521 0
4.59398 12.0291 0
9.90985 15.2374 0
7.91588 14.7659 0
3.68906 13.456 0
6.31223 15.4929 0
-2.13984 15.7079 0
-0.645182 16.027 0
13.9675 20.1204 0
11.259 21.2363 0
0.0670008 14.9986 0
0.996637 15.7077 0
12.0086 22.9781 0
3.64256 15.5983 0
12.9721 12.3288 0
9.86264 12.849 0
-8.34165 13.4757 0
-8.3657 12.6078 0
-9.19051 10.6757 0
-7.08884 11.5053 0
-9.8753 16.85 0
-6.09909 15.7994 0
15.6955 42.6042 0
16.9198 43.8301 0
1.51607 13.3087 0
2.3243 11.7701 0
-3.91946 15.4469 0
-3.80692 14.2335 0
-13.2985 15.4869 0
-10.0722 16.1823 0
-0.385461 17.5741 0
-0.460969 17.5216 0
7.42765 12.5497 0
6.99838 13.4608 0
8.35556 10.891 0
7.29564 12.2751 0
-11.0669 18.167 0
-13.7233 17.0688 0
-2.71109 16.4771 0
-1.74643 17.9217 0
1.29216 16.8387 0
2.90702 16.8302 0
5.9639 13.6246 0
5.68007 14.236 0
-7.36443 17.1251 0
-7.1393 17.58 0
-9.00454 14.7286 0
-6.30751 14.9604 0
3.62459 15.5543 0
4.40414 14.3116 0
-10.5249 20.6981 0
-3.8748 17.7348 0
14.4859 21.1503 0
12.1587 22.1518 0
-16.4286 25.3837 0
-14.0127 25.4498 0
8.07135 16.5612 0
7.2232 15.5898 0
12.5898 17.9951 0
8.8639 19.3792 0
3.66406 18.1295 0
5.45302 18.7751 0
0.951083 19.5027 0
3.04975 18.5836 0
-1.03393 25.4659 0
-3.64381 24.0897 0
-3.23119 22.4133 0
-4.48471 19.6327 0
-6.11325 14.695 0
-4.00019 14.1189 0
-9.7117 19.6118 0
-8.1615 18.5449 0
7.50054 23.379 0
6.79373 20.5614 0
-13.18 14.7543 0
-9.35034 15.2357 0
-9.3082 15.3452 0
-7.11078 16.3605 0
-0.372189 19.7367 0
-0.133146 19.4303 0
14.6568 30.1692 0
2.00999 22.9046 0
16.9731 26.8427 0
14.8784 27.1841 0
-15.054 20.7052 0
-12.3091 21.3928 0
-5.30018 16.1611 0
-5.13287 17.4095 0
7.54661 17.3955 0
6.3963 17.3816 0
1.05786 17.2179 0
1.6573 18.2895 0
10.141 15.7067 0
13.0382 16.0027 0
12.5651 17.8759 0
8.07395 16.8831 0
-11.9214 22.3662 0
-4.46502 19.9764 0
-2.24613 18.9243 0
-3.5189 18.7848 0
3.48837 23.271 0
4.09307 22.5957 0
-5.73058 17.9273 0
-5.61321 19.063 0
3.67305 17.5946 0
5.68413 16.6723 0
-1.98174 22.2813 0
-0.404639 23.6521 0
1.94616 28.4572 0
12.3136 30.1942 0
-12.5938 43.8625 0
-14.012 44.6132 0
-5.2389 48.369 0
-2.642 24.9732 0
-14.2678 19.0661 0
-12.0657 20.9561 0
-1.83941 19.6407 0
-3.52975 20.6241 0
-7.38641 20.6615 0
-5.88553 20.9831 0
13.1038 26.134 0
11.7749 29.1114 0
4.64842 20.934 0
6.27382 21.2542 0
11.228 21.3472 0
8.26757 22.235 0
12.9853 18.6325 0
10.977 20.8809 0
-13.5751 24.5705 0
-3.79764 21.8375 0
16.238 24.9385 0
14.4359 26.2645 0
2.06535 20.5554 0
3.24224 19.778 0
-15.7123 22.2595 0
-13.5943 23.463 0
-1.92843 27.0864 0
3.89321 24.4507 0
0.162206 21.1215 0
1.69251 21.5193 0
-8.15342 18.6568 0
-6.84341 19.6054 0
7.89902 18.54 0
6.39443 19.3809 0
-1.51492 21.4967 0
-2.21979 20.3595 0
12.5624 17.886 0
8.01572 18.1828 0
-2.71139 24.6341 0
-1.4595 23.4231 0
-5.80613 21.579 0
-4.82676 22.187 0
-4.60381 24.3137 0
-5.19393 23.5465 0
-14.0886 18.7159 0
-10.4529 20.326 0
5.27319 24.5028 0
5.86133 23.3724 0
-0.359604 29.6767 0
5.32583 48.2651 0
-8.18319 21.6069 0
-7.87921 22.6997 0
1.92108 49.3877 0
1.55465 51.3093 0
-10.2462 27.8303 0
-8.06458 30.0993 0
9.37195 20.6704 0
8.14187 21.9067 0
14.9709 22.1373 0
12.4695 23.3352 0
5.57478 22.8107 0
6.43284 21.6458 0
2.11017 21.1755 0
3.83806 21.7578 0
3.28243 25.0646 0
5.2559 28.5342 0
4.45709 20.2028 0
5.55465 19.1356 0
1.57934 23.3233 0
1.85543 24.5681 0
12.7017 18.2302 0
9.3488 20.5382 0
-5.91981 36.2685 0
-4.71237 31.8641 0
-13.9933 27.8344 0
-16.6316 27.5867 0
-0.243265 21.6095 0
0.232283 22.9762 0
-7.2828 22.8635 0
-6.96859 23.6409 0
-9.70769 19.9836 0
-7.38634 20.659 0
8.79556 25.7015 0
9.74209 23.9087 0
-16.266 24.0881 0
-13.8248 24.2284 0
-7.40459 24.3955 0
-7.40049 25.9758 0
4.6176 32.5048 0
8.69704 31.2733 0
-14.2072 29.8169 0
-9.93572 28.8218 0
8.65185 26.1927 0
5.73123 27.4529 0
2.37279 28.0695 0
1.31419 26.3327 0
-4.84807 26.0893 0
-4.73806 26.1568 0
16.5163 41.2973 0
18.1228 41.8184 0
-0.144106 24.6573 0
1.19156 25.1235 0
-9.47464 23.5483 0
-9.61534 23.986 0
5.89083 37.347 0
6.07224 43.8885 0
-3.33388 25.8312 0
-2.78107 26.9597 0
14.6377 27.6236 0
12.4035 27.91 0
-10.4282 45.9711 0
-11.335 47.6369 0
-11.4631 44.5915 0
-7.58167 35.1971 0
9.99346 23.3741 0
9.54891 22.4381 0
-10.6366 25.9969 0
-9.09591 24.5912 0
12.84 25.6114 0
10.4365 25.2919 0
-2.44402 37.6938 0
-0.672624 31.2197 0
-9.82254 21.5265 0
-10.3166 22.5228 0
17.2606 28.3535 0
15.1838 28.5242 0
15.4057 22.9759 0
13.1359 24.4104 0
16.184 34.928 0
12.927 34.1396 0
-1.905 29.6844 0
-1.52462 28.0212 0
-14.8205 35.4033 0
-16.734 35.2354 0
3.37907 25.9921 0
2.19181 26.7649 0
7.95778 30.2716 0
7.18768 27.2274 0
5.85185 25.1142 0
4.87084 26.0926 0
-6.12075 29.23 0
-5.50532 29.8961 0
7.98365 24.1114 0
7.79552 24.5853 0
6.02968 30.1777 0
6.31129 32.6789 0
-13.9208 27.9989 0
-10.8903 27.6696 0
17.1124 36.8189 0
19.0799 37.1296 0
-8.87553 26.9642 0
-5.9921 28.5494 0
-13.0835 37.63 0
-10.0223 33.7698 0
3.24529 31.8454 0
2.64444 32.2383 0
-16.5311 26.5405 0
-13.6976 26.6464 0
-16.7457 28.9917 0
-14.6565 29.0705 0
-0.393561 41.0867 0
2.89681 42.9499 0
[...]
CELL_DATA 476
SCALARS cell_division_count float
LOOKUP_TABLE default
1
0
1
0
0
0
1
0
0
1
1
1
1
1
1
1
0
1
1
1
1
1
1
0
1
1
1
1
1
1
1
1
2
4
3
1
1
0
0
1
1
0
0
0
1
2
3
0
1
0
0
1
1
1
1
1
0
0
3
0
1
2
3
1
1
1
1
1
1
1
2
2
1
1
1
1
2
1
1
1
3
1
1
2
9
1
1
1
1
1
1
1
1
1
1
1
1
1
1
1
1
1
2
3
5
2
1
3
5
2
2
2
5
3
2
4
2
3
5
5
6
3
3
6
3
4
6
9
3
5
4
4
8
5
6
6
5
4
5
14
5
5
5
7
5
4
6
4
10
5
3
4
6
6
6
7
6
6
11
7
8
7
6
7
8
18
11
6
8
9
4
7
8
13
6
7
7
8
8
3
6
12
10
11
9
7
11
13
9
15
8
11
10
11
9
9
5
14
6
10
8
13
10
10
8
11
6
10
11
14
8
11
13
11
9
12
9
8
9
11
13
9
11
6
16
13
11
12
11
13
8
13
13
12
15
14
10
8
12
13
14
11
12
11
16
9
14
15
15
12
7
9
14
15
11
14
14
14
13
13
12
12
8
12
16
14
8
9
17
14
15
15
14
14
13
11
14
14
14
14
14
15
14
8
15
9
9
14
13
13
14
12
12
10
12
12
14
15
7
13
13
15
11
14
14
14
8
13
15
12
16
15
15
15
13
14
15
16
12
15
16
9
11
14
16
14
15
16
14
15
11
7
11
13
17
14
15
13
16
15
13
16
15
12
15
14
17
13
10
9
14
17
13
15
14
15
10
17
15
15
15
15
14
13
12
14
14
17
16
15
16
15
15
15
16
8
16
15
15
16
13
14
10
17
16
14
11
16
15
14
15
15
15
9
16
15
14
12
18
14
16
14
11
15
17
17
14
17
8
10
11
14
15
12
16
15
15
16
17
15
16
15
15
16
16
16
15
15
15
16
16
16
17
15
16
16
15
17
14
16
17
11
11
12
13
15
15
17
17
17
16
14
17
15
17
15
17
15
17
15
17
12
11
16
17
16
18
11
16
18
15
16
15
15
17
16
SCALARS cell_time float
LOOKUP_TABLE default
2311
2.22229e+13
2331
4.48239e+13
2.67348e+11
1.25633e+10
2341
2.68224e+09
9.19769e+11
2331
2331
2321
2291
2341
2261
2301
1.22832e+06
2341
2311
2341
2341
2241
2281
26123.4
2341
2341
2341
2341
2341
2231
2291
2231
2191
1931
2081
2181
2321
1.00108e+18
2.94533e+15
2291
2281
107423
3685.76
2397.34
2271
2171
1971
2388.01
2281
5039.01
2656.18
2261
2301
2311
2321
2291
1.12104e+13
23506.3
1761
4377.96
2291
2211
2031
2341
2341
2341
2341
2341
2341
2341
2221
2101
2341
2331
2331
2331
2161
2321
2321
2321
1461
2311
2311
2171
1091
2311
2301
2301
2291
2291
2291
2291
2291
2281
2281
2281
2271
2261
2261
2241
2231
2231
2221
2091
1911
2191
2181
2031
1811
2171
2171
2171
1461
1751
2161
1781
2101
2091
1821
1781
1671
2051
2031
1661
2031
1751
1761
1451
1971
1821
1951
1951
731
1761
1651
1681
1881
1661
1851
681
1821
1821
1811
1511
941
1781
1551
1531
1181
1761
1751
1751
1751
1741
1681
1481
1671
1661
1021
1091
1011
1471
1061
1401
1471
1
1151
1551
1541
1091
1531
1511
1511
361
871
1341
1481
1201
1471
1461
1191
881
1331
1091
1411
1401
1031
821
511
21
1151
1201
1321
911
1091
891
1291
681
1271
1271
671
691
1241
1211
1201
1201
1191
1181
1161
701
1151
1141
421
1131
351
581
1091
871
1091
1091
811
1091
1081
1061
241
241
1031
1031
1021
801
1011
561
551
521
521
721
951
171
931
921
91
921
541
321
101
891
681
531
1
881
571
661
241
561
81
561
561
561
631
801
621
621
251
581
201
301
731
731
21
721
151
111
701
501
691
11
691
681
681
31
681
201
681
671
541
481
661
541
541
631
181
621
611
601
581
581
201
431
571
571
561
561
171
561
561
561
371
551
281
541
1
131
541
281
541
361
531
251
521
521
101
511
511
341
11
501
21
91
331
1
81
471
231
461
51
441
431
421
231
141
411
181
401
391
211
391
31
371
371
211
371
51
361
161
361
101
191
11
171
341
1
191
331
61
81
161
301
1
161
281
11
281
151
281
161
251
251
251
251
241
241
241
241
21
121
141
231
231
31
221
61
211
211
211
201
201
201
201
11
191
1
191
11
191
91
41
181
31
171
171
171
171
171
21
41
161
31
161
31
151
151
151
141
11
141
141
61
131
131
121
121
121
111
111
101
101
101
101
91
91
91
81
81
81
61
61
61
51
51
41
41
31
31
31
31
31
31
21
21
21
21
21
11
11
11
11
11
11
11
1
1
1
1
1
1
1
SCALARS cell_area float
LOOKUP_TABLE default
3.24159
3.29967
3.29303
3.35564
3.35096
3.34325
3.32636
3.37405
3.3483
3.28132
3.33625
3.28184
3.38611
3.31884
3.30548
3.32945
3.39801
3.28852
3.34607
3.39725
3.39169
3.33905
3.33875
3.37144
3.35801
3.37563
3.43959
3.40195
3.39092
3.32887
3.24634
3.29642
3.35051
3.33631
3.44508
3.24906
3.3445
3.25228
3.26074
3.24823
3.2363
3.27739
3.26126
3.27784
3.21933
3.28361
3.25503
3.26224
3.25834
3.24748
3.26722
3.27281
3.21605
3.25676
3.24441
3.24186
3.2092
3.21648
3.26647
3.19541
3.24575
3.30562
3.26789
3.27996
3.33681
3.2844
3.39857
3.3514
3.2794
3.35644
3.45188
3.35136
3.35654
3.2864
3.24806
3.27433
3.34108
3.35094
3.23062
3.22172
3.21929
3.25824
3.33481
3.33062
3.36932
3.22222
3.29615
3.25186
3.36969
3.28695
3.22414
3.20342
3.21548
3.30333
3.25101
3.24382
3.25801
3.3236
3.26255
3.29976
3.28909
3.26273
3.40139
3.23142
3.29338
3.23954
3.32794
3.38511
3.29074
3.27823
3.25753
3.27108
3.27369
3.29265
3.24487
3.31602
3.35616
3.40455
3.25425
3.42543
3.30192
3.3489
3.27061
3.34765
3.40623
3.26077
3.44208
3.39705
3.21504
3.27962
3.33444
3.20625
3.28549
3.37025
3.31508
3.3541
3.36606
3.26385
3.36556
3.30752
3.24875
3.28085
3.31504
3.27354
3.23245
3.34813
3.40023
3.26872
3.37316
3.31355
3.29984
3.23252
3.37269
3.36093
3.38423
3.38714
3.33846
3.30848
3.35524
3.27478
3.25906
3.41163
3.28783
3.31993
3.36897
3.39893
3.36717
3.32829
3.29901
3.36451
3.27062
3.32529
3.4318
3.29025
3.27739
3.23074
3.36147
3.36938
3.39122
3.23881
3.29791
3.31044
3.43512
3.38892
3.39059
3.31716
3.38484
3.39861
3.2417
3.26836
3.27614
3.41023
3.40272
3.28925
3.35665
3.271
3.23687
3.29143
3.24192
3.34287
3.261
3.33511
3.41964
3.3531
3.30263
3.3904
3.28925
3.3465
3.38416
3.36482
3.30913
3.39177
3.38407
3.35395
3.25877
3.31374
3.34373
3.27838
3.37274
3.37049
3.44259
3.35214
3.39917
3.27989
3.37304
3.28975
3.39761
3.32785
3.30416
3.36812
3.22006
3.35684
3.42544
3.26317
3.34331
3.4078
3.42477
3.28065
3.38832
3.38422
3.2739
3.36723
3.26904
3.30622
3.26355
3.33724
3.38163
3.29683
3.3471
3.31661
3.29624
3.25159
3.31631
3.36603
3.29915
3.38741
3.30835
3.34649
3.39809
3.33765
3.33271
3.30599
3.23784
3.35924
3.3514
3.38648
3.27589
3.28428
3.31097
3.36143
3.33991
3.34957
3.37571
3.37908
3.37641
3.29784
3.34104
3.33906
3.35629
3.29736
3.26395
3.32925
3.35939
3.26432
3.3751
3.24755
3.30238
3.29064
3.3367
3.34061
3.34491
3.30784
3.35719
3.2877
3.38077
3.35055
3.36154
3.38283
3.31417
3.37983
3.32943
3.37159
3.33619
3.34234
3.33995
3.32248
3.26312
3.38904
3.36315
3.30807
3.36623
3.29953
3.30719
3.33032
3.38098
3.2907
3.39768
3.36219
3.35127
3.343
3.32988
3.27923
3.29263
3.32997
3.29485
3.34173
3.32744
3.27159
3.36801
3.33589
3.29182
3.28279
3.26203
3.31942
3.32652
3.36237
3.34003
3.28074
3.36182
3.34307
3.306
3.26667
3.27808
3.29945
3.29196
3.33379
3.31276
3.32447
3.24228
3.34387
3.40238
3.30032
3.32536
3.32454
3.29857
3.33965
3.30126
3.29655
3.31944
3.3313
3.31562
3.2947
3.35432
3.32275
3.3446
3.31601
3.31245
3.33682
3.3497
3.31955
3.28921
3.3124
3.37118
3.3247
3.33939
3.2806
3.36015
3.26342
3.3513
3.34529
3.3072
3.29763
3.30484
3.31896
3.32552
3.34801
3.28942
3.34932
3.32821
3.30122
3.3245
3.34843
3.28367
3.31803
3.276
3.35098
3.29668
3.31011
3.30654
3.29322
3.32824
3.30218
3.31294
3.35105
3.36492
3.35392
3.32273
3.27284
3.29041
3.29583
3.30283
3.33004
3.33496
3.30639
3.38251
3.28917
3.30412
3.31141
3.31846
3.32529
3.27029
3.33591
3.31615
3.32567
3.32293
3.33019
3.31436
3.3217
3.30702
3.36298
3.35543
3.32963
3.34875
3.31813
3.323
3.31522
3.29155
3.28242
3.26989
3.30264
3.33656
3.2957
3.27641
3.32186
3.32418
3.34367
3.31527
3.35096
3.32126
3.29126
3.31333
3.28168
3.2888
3.30269
3.32073
3.29479
3.28511
3.31068
3.3147
3.31626
3.28588
3.28662
3.30617
3.31616
3.33552
3.32332
3.32029
3.30286
3.28079
3
3.26312
3.36154
204
0
0
0
SCALARS cell_perimeter float
LOOKUP_TABLE default
6.92952
6.9437
6.96298
7.20004
7.12993
6.81944
7.07988
7.65685
6.9374
6.92655
7.39046
7.00338
6.79929
7.24568
7.04565
6.79557
7.17807
6.97001
6.92483
6.98739
6.94303
7.27431
7.24552
7.58548
7.59806
6.9565
7.98661
7.13487
6.90257
7.07249
6.94959
7.05288
8.19051
7.03386
7.09169
7.34463
7.90803
7.52354
7.83153
7.64291
8.27557
8.67338
8.1979
7.77041
7.38515
9.61702
8.04007
7.66785
8.05836
7.66388
8.13763
8.45577
7.78869
8.07631
7.6757
7.21762
7.43959
7.39249
8.689
7.32617
7.73296
9.7092
8.63661
7.03653
7.15278
7.24339
6.90392
7.08562
7.18432
6.86639
7.80074
7.06835
7.17286
7.07736
7.24048
7.21921
7.79701
7.27172
6.93614
7.87597
8.24317
6.79085
7.0209
7.86677
7.55766
7.98423
6.82411
7.98553
7.08174
6.99942
7.80151
7.31464
7.65735
7.13309
7.93718
7.98018
7.37017
6.94672
8.23543
7.19109
7.17286
6.94639
7.1219
8.05984
7.21062
7.03405
6.85444
7.40561
7.31775
8.60759
8.66538
8.59459
10.1297
7.21606
7.24432
7.06089
6.91893
7.42856
8.26645
7.05806
7.67251
7.2806
8.97485
7.1986
7.25134
8.45252
7.16147
7.07475
7.72648
7.02804
7.29052
7.79448
7.94286
7.35599
7.29539
7.08245
7.04708
7.96138
6.92557
7.24234
8.21312
6.91219
7.58215
7.58162
7.30867
7.22554
7.25836
9.1529
7.08994
7.32699
7.29888
8.09485
7.07565
7.17158
6.82974
6.84819
8.02572
7.00353
7.58297
7.8296
7.57352
6.87001
9.83235
7.3372
7.07817
7.06976
6.98296
7.18215
7.42984
7.17434
9.39276
7.88011
7.11462
7.43936
7.29835
8.04955
7.00394
7.09844
7.09275
7.98731
10.8182
6.92056
7.02093
7.09097
6.89002
7.36226
6.90035
6.91933
7.29952
6.90946
9.21288
7.01695
7.41668
7.23028
6.93065
7.16233
8.18056
7.23968
7.42151
6.98013
8.2526
7.0326
7.23641
7.07243
7.08727
6.89402
10.2981
7.05988
6.96212
6.95458
9.79408
6.9368
6.98458
7.08241
7.32034
7.01875
7.58291
7.93103
7.05466
7.054
7.0426
7.06805
7.02292
9.33044
6.93869
7.70768
7.07549
7.1338
7.41979
7.15687
7.59115
7.17076
7.02312
7.24436
7.21817
6.92096
6.99985
7.10529
6.91356
7.09544
6.84111
6.94953
7.46097
7.26798
6.93333
6.9491
6.82656
7.12285
6.98546
7.02152
7.51483
7.9366
6.8912
7.02262
7.22063
7.22908
7.17676
7.46173
6.86884
7.1743
7.36788
7.53832
7.30893
7.1937
7.19247
6.93489
7.82848
7.62987
6.96767
7.17144
6.83914
7.19394
6.94826
7.54146
6.96246
7.13442
7.0259
7.2696
7.3531
6.93559
7.38618
6.83915
6.96985
8.40504
6.82077
7.29738
8.08111
7.32291
7.11023
7.07597
6.97218
7.60882
7.27497
7.35485
7.09482
6.93313
7.07243
7.09016
7.72511
7.05565
7.13328
6.9213
7.93035
7.1667
7.13188
7.14033
7.61216
6.98061
6.92579
7.67136
6.8871
7.47143
7.02131
6.81563
7.14815
7.02496
7.01993
7.02384
6.8438
7.20033
6.82139
7.13821
7.4071
6.99983
6.97553
7.159
7.02847
6.95735
6.85201
7.08107
7.16729
7.22597
7.33332
7.01235
6.82941
6.92701
7.53575
7.30766
6.91461
6.86561
7.06021
7.01657
7.20734
7.95461
7.05548
7.1492
7.12338
7.0452
7.33387
8.59669
7.30127
7.48086
7.44528
7.05124
7.11368
6.85788
7.26341
7.07872
6.90948
6.89459
6.8472
6.92831
6.76233
7.4948
7.64667
7.02146
7.07178
6.79291
7.39847
7.03319
6.97353
7.06568
6.87346
6.92498
6.75444
7.35431
7.8304
6.94275
7.13398
6.93899
8.16677
6.8365
7.09329
7.07047
6.83178
6.78799
7.19782
6.92439
6.87943
7.04022
7.10883
6.73576
6.98104
8.17117
6.99282
6.88294
7.12512
7.34292
6.93467
6.86302
6.83696
6.86913
7.34621
6.91927
6.94609
6.98851
6.89336
7.0487
7.18935
7.3585
7.74274
6.82646
7.08279
7.16617
7.08731
6.92803
7.12811
6.9761
6.95133
6.94614
6.9865
6.87598
6.98437
6.80078
7.0098
6.87787
6.90175
7.49093
6.93716
6.99177
6.80059
7.30595
7.71125
6.91766
7.05253
6.83835
6.8559
7.03194
6.93919
7.02121
6.91863
7.16008
7.44845
7.27072
7.52894
6.77371
6.89161
6.8329
6.8649
7.10998
6.8491
6.98305
7.06575
6.84352
7.02063
6.98176
6.93415
6.84865
7.06899
7.05504
7.06948
7.12612
7.39835
6.93869
7.18975
6.99049
6.80719
7.24166
6.97819
17
3.26989
3.36723
243
0
0
0
SCALARS cell_frequency_modifier float
LOOKUP_TABLE default
1.64592e+18
8.74213e+15
1.94672e+16
1.28105e+15
3.52523e+14
7.16923e+13
1.10857e+12
1.05219e+13
5.48927e+14
2.81625e+16
1.1611e+13
8.02967e+14
2.53047e+10
6.28803e+11
1.07045e+14
2.70174e+14
4.46707e+12
2.20719e+13
1.90268e+10
2.78676e+08
2.40702e+10
3.40476e+11
3.89249e+12
3.35425e+11
1.92107e+10
1.32957e+09
1.77134e+08
4.499e+08
9.6836e+09
6.57416e+10
7.89801e+13
6.97682e+10
7.87662e+08
9.52347e+07
5.42899e+06
1.53017e+12
2.53651e+10
9.49005e+18
3.05822e+18
5.24153e+17
7.68421e+15
1.61548e+15
6.13316e+14
2.46171e+13
5.46283e+12
7.70572e+10
7.77744e+09
8.22867e+11
4.09235e+12
3.88499e+14
1.01455e+15
2.894e+15
6.96335e+17
4.12244e+18
10000
10000
2.03237e+17
1.65583e+14
5.54203e+07
1.0994e+14
1.65001e+17
5.71434e+08
2.33464e+10
2.12669e+15
1.33089e+12
7.83521e+13
2.08808e+08
2.66649e+09
4.61128e+12
1.87494e+09
3.47836e+07
8.6279e+07
4.03451e+09
2.02516e+16
6.82318e+15
2.48299e+14
4.58592e+08
3.16908e+11
3.49045e+13
1.44099e+19
5.63983e+07
2.02447e+18
4.79591e+09
3.29974e+08
4082.12
3.61298e+18
6.05265e+14
1.03079e+18
2.29998e+09
1.25668e+13
2.04086e+18
10000
6.42386e+16
3.68215e+12
2.55306e+16
1.45768e+13
9.65714e+11
1.1114e+13
1.0182e+16
1.16181e+12
5.92271e+13
3.63454e+12
3.45497e+07
1.37001e+10
4.57495e+07
5.9684e+11
3.88796e+09
2.908e+06
6.74188e+09
2.06715e+11
7.33345e+08
1.79481e+11
3.11135e+07
2.05352e+09
3.27606e+11
1.83274e+07
4.81386e+08
2.55613e+07
3.89394e+09
511768
542392
8.36029e+07
6.45941e+10
835487
4.64792e+06
2.49549e+07
166076
52705.6
2.49881e+09
1.64024e+09
3.02732e+07
4.77201e+08
16741.8
9.60734e+06
1.31247e+06
4.87715e+06
835833
925631
1.45775e+06
2296.87
1.38843e+09
1.82459e+09
2.61679e+08
5.69509e+07
110.029
1.5983e+07
608403
1.43115e+08
311.129
1.72161e+07
1.68122e+08
1.12161e+07
146112
347652
1.17551e+06
113699
2.56581e+06
5.41033e+06
5499.97
388613
73273.5
148180
4.37466e+06
157544
33991.2
0.34061
871.562
5.67899e+06
297152
1291.96
3.07277e+08
1.12082e+06
21135.3
2480.38
12061
1.5676e+06
176170
33845.2
57144.6
1.56644e+08
719165
9963.08
8889
1404.05
28889.1
489306
1096.93
126.87
103.319
113.645
2.49626e+06
4203.81
6764.24
16834
8164.69
359161
2.01359e+06
377358
27273.7
22104.2
337170
102.446
5001.15
34994.8
80501.6
2364.89
9.22898e+06
925.772
3116.72
193.787
60872.5
539.108
7.16629
2673.46
164.872
117.348
3717.7
184192
2035.4
4843.27
143.119
22237.9
387.413
2.84977e+06
1.65161
542.372
1319.09
2135.59
63386.3
397.534
169206
399.151
13.9969
6055.73
83.5222
39.9272
166.408
131.656
379.316
504.75
119.726
118.685
8201.08
2.76593
102.767
1203.36
219.124
1200.37
1.03302
3947.76
340.203
101368
3.2681
8.98427
4.08984
47.9983
72.0003
216.151
19.2495
429.629
15.2164
228.968
342.464
64.0584
1.39216
3.17849
31934.9
8709.98
1.77786
26.9774
1.10689
0.470923
70.9068
7.30995
134.432
5.26651
151.752
352.429
902.087
5.2616
51354.6
4.13345
40.697
626633
12.6213
136.976
1181.56
3231.78
10.6931
98.2084
5.8475
400.951
20.596
4112.21
20.5176
83.1586
6.86913
4.742
37.8198
9.39912
263.114
14.3405
1.20167
78.7917
52.4482
213.711
849.751
17.4352
2.52522
70.711
0.514985
12.7701
55.0393
16.2588
6.96129
466.329
30.6391
2.42841
28.9268
37.9269
0.700481
100.006
479.163
3.06659
10.0697
16.4447
0.831712
106.864
3.26828
0.827817
48.9939
233.038
149.22
5.58723
0.848668
6.69611
5.69342
2614.92
4.13748
0.756265
5.54297
131.705
1721.69
41.5632
106.381
9.09843
2.03553
3.2617
340.315
8.65719
2.46497
2.90407
12.6942
4.7748
30.8581
1.06154
3.80005
7.82657
4.41726
3.49457
1.41552
26.8303
2.51141
1.26931
0.522883
1.12313
7.48909
0.692219
1.34444
9.40721
115.616
56.3401
0.750326
2.52062
0.853492
531.412
4.68144
266.771
1.46996
3.27462
13.2714
15.0193
2.86003
0.979493
1.66202
0.542295
137.753
3.74812
0.733528
7.56976
0.817692
0.817546
316.574
11.9916
382.458
5.14531
53.2421
2.1077
1.77033
12.8517
0.844003
5.63289
1.85974
1.37892
0.424931
0.475365
7.48659
166.795
169.7
7.53614
5.55811
1.28075
3.42841
1.76099
0.380174
465.585
2.197
4.00591
2.1107
2.41848
187.84
1.18853
1.15371
1.09392
2.09437
0.792061
1.21471
3.07221
3.07256
0.437436
0.446059
1.07947
0.477896
1.05384
0.973952
1.17619
113.455
100.877
137.133
2.96159
0.68145
7.90635
111.583
0.89795
1.18742
0.536048
1.14305
0.621472
0.930276
101.601
1.37777
102.71
128.24
2.3337
2.00226
9.97267
206.076
1.47454
2.10214
1.19725
100.052
102.591
2.06315
1.58899
0.899643
1.17134
0.946713
3.36578
113.793
1
1
1
1
1
1
1
SCALARS cell_area_modifier float
LOOKUP_TABLE default
100
3.20137
14.8889
0.423859
0.456892
0.52608
0.760746
0.352234
0.482759
100
0.611872
100
0.329933
0.98426
1.98309
0.698436
0.311318
100
0.500801
0.314449
0.317643
0.574403
0.577942
0.360353
0.409071
0.349609
0.290133
0.303265
0.319809
0.714395
100
5.7546
0.465971
0.607907
0.287466
100
0.511729
100
100
100
100
100
100
100
100
100
100
100
100
100
100
100
100
100
100
100
100
100
100
100
100
1.94203
100
100
0.596313
100
0.309265
0.443919
100
0.41819
0.286587
0.446029
0.416334
100
100
100
0.544399
0.461387
100
100
100
100
0.641148
0.663836
0.368856
100
6.55944
100
0.365977
100
100
100
100
2.16628
100
100
100
0.835263
100
3.09571
100
100
0.304249
100
11.3012
100
0.736842
0.331098
100
100
100
100
100
17.6981
100
1.09965
0.421952
0.300352
100
0.293768
2.65722
0.475418
100
0.490329
0.299394
100
0.289238
0.315506
100
100
0.645561
100
100
0.364555
1.16812
0.431661
0.379296
100
0.382389
1.60892
100
100
1.18285
100
100
0.485256
0.305239
100
0.353562
1.26245
2.99681
100
0.357606
0.402057
0.333452
0.327628
0.581525
1.50562
0.427725
100
100
0.296554
100
0.935194
0.370312
0.307239
0.376254
0.719877
3.70751
0.387123
100
0.786253
0.291939
100
100
100
0.39864
0.367411
0.318722
100
4.02575
1.43645
0.291033
0.324231
0.320903
1.02738
0.332271
0.308248
100
100
100
0.297494
0.301317
100
0.414494
100
100
312.667
100
0.535083
100
0.632502
0.295619
0.437704
2.44909
0.322005
100
0.49551
0.33584
0.385532
1.48183
0.316571
0.337046
0.433657
100
1.24568
0.517375
100
0.356248
0.363144
0.288349
0.439756
0.306236
100
0.3549
100
0.313398
0.742676
2.07064
0.37178
100
0.41267
0.29285
100
0.523146
0.298441
0.294691
100
0.325356
0.334641
100
0.37475
100
1.7935
100
0.588826
0.340719
4.8601
0.492906
1.03876
6.13072
100
1.05039
0.380836
3.56654
0.326488
1.53018
0.498141
0.310288
0.585153
0.654571
1.90264
100
0.407295
0.441828
0.328777
100
100
1.39376
0.400341
0.560669
0.470647
0.34831
0.345743
0.347022
4.20628
0.547577
0.570907
0.420063
4.62069
100
0.708995
0.405534
100
0.350917
100
2.51475
100
0.600128
0.550793
0.506206
1.58179
0.410863
100
0.343213
0.463668
0.396953
0.338262
1.22936
0.344473
0.703676
0.358974
0.61589
0.538153
0.557338
0.882408
100
0.323114
0.388728
1.55556
0.377769
3.31449
1.66607
0.668567
0.341961
100
0.312354
0.393621
0.450312
0.532048
0.688188
100
21.814
0.683176
8.30088
0.541258
0.748603
100
0.373259
0.624085
40.7826
100
100
0.964029
0.754626
0.391977
0.554046
100
0.39528
0.529047
1.86481
100
100
3.4359
28.4242
0.650035
1.31557
0.820647
100
0.514536
0.302288
2.90402
0.779717
0.806535
3.86008
0.564041
2.73469
5.42197
0.954222
0.659171
1.12605
10.086
0.429684
0.866113
0.508953
1.11269
1.33428
0.592546
0.468298
0.944612
100
1.35354
0.361743
0.799659
0.567453
100
0.403788
100
0.448161
0.503489
1.637
4.40376
2.02592
0.974039
0.773289
0.48778
100
0.473021
0.731099
2.81682
0.81353
0.480287
100
1.01625
100
0.454678
5.12568
1.45879
1.72744
12.8493
0.725445
2.58402
1.29737
0.452484
0.383954
0.435671
0.874185
100
100
7.05263
2.27119
0.678236
0.636796
1.75985
0.339486
100
2.11738
1.37335
0.994698
0.792899
100
0.61996
1.08691
0.766966
0.858188
0.673367
1.21345
0.899329
1.6962
0.390345
0.425783
0.693274
0.47784
1.00536
0.850408
1.15375
72.1538
100
100
2.38677
0.603992
7.62602
100
0.890788
0.827891
0.520244
1.13973
0.459129
0.908035
100
1.27967
100
100
2.32754
0.916911
9.1068
100
1.41478
1.19796
1.06229
100
100
1.82846
1.07446
0.628265
0.842767
0.925962
2.21749
100
1
1
1
1
1
1
1
SCALARS cell_Gaussian_modifier float
LOOKUP_TABLE default
1.64592e+16
2.73075e+15
1.3075e+15
3.02235e+15
7.71566e+14
1.36277e+14
1.45721e+12
2.98718e+13
1.13706e+15
2.81625e+14
1.89762e+13
8.02967e+12
7.66965e+10
6.38858e+11
5.39788e+13
3.86828e+14
1.43489e+13
2.20719e+11
3.79928e+10
8.86239e+08
7.57776e+10
5.92748e+11
6.73508e+12
9.30822e+11
4.69619e+10
3.80303e+09
6.10527e+08
1.48352e+09
3.02793e+10
9.20242e+10
7.89801e+11
1.21239e+10
1.69037e+09
1.5666e+08
1.88857e+07
1.53017e+10
4.95675e+10
9.49005e+16
3.05822e+16
5.24153e+15
7.68421e+13
1.61548e+13
6.13316e+12
2.46171e+11
5.46283e+10
7.70572e+08
7.77744e+07
8.22867e+09
4.09235e+10
3.88499e+12
1.01455e+13
2.894e+13
6.96335e+15
4.12244e+16
100
100
2.03237e+15
1.65583e+12
554203
1.0994e+12
1.65001e+15
2.94246e+08
2.33464e+08
2.12669e+13
2.23186e+12
7.83521e+11
6.75175e+08
6.00672e+09
4.61128e+10
4.48346e+09
1.21372e+08
1.93438e+08
9.69056e+09
2.02516e+14
6.82318e+13
2.48299e+12
8.42382e+08
6.86859e+11
3.49045e+11
1.44099e+17
563983
2.02447e+16
7.48018e+09
4.97072e+08
11067
3.61298e+16
9.22739e+13
1.03079e+16
6.28447e+09
1.25668e+11
2.04086e+16
100
6.42386e+14
1.69975e+12
2.55306e+14