# vtk DataFile Version 2.0
2D-vertex
ASCII
DATASET UNSTRUCTURED_GRID
POINTS 1724 float
0.823147 -6.01674 0
3.27442 -5.74708 0
3.63884 -4.79119 0
2.58877 -3.75056 0
0.312795 -3.65901 0
-0.371027 -5.16083 0
4.17048 -4.74351 0
4.72217 -3.87382 0
3.75396 -2.38793 0
2.71202 -2.72939 0
1.50772 -1.50299 0
-0.19329 -1.06508 0
-0.928594 -2.3567 0
-1.08724 -2.39968 0
-1.56618 -4.07333 0
-1.03782 -4.94375 0
5.29716 -4.01515 0
6.08997 -3.11015 0
4.21736 -1.63013 0
3.94616 -1.70479 0
3.0477 -0.771343 0
1.98147 -0.885201 0
1.24112 2.72151 0
0.389948 2.67599 0
-0.387291 0.777474 0
-1.57836 -0.160931 0
-1.45347 -2.05777 0
-2.74195 -2.3773 0
-3.23001 -3.41522 0
-2.91327 -4.11792 0
7.1586 -3.06808 0
7.76323 -2.3205 0
7.54592 -1.01556 0
5.30285 0.0833321 0
5.75671 0.677787 0
3.37502 1.942 0
2.5763 3.2089 0
1.69038 3.34283 0
0.700841 6.52637 0
-0.875484 6.52742 0
-0.498717 3.46314 0
-1.97859 2.48711 0
-2.99782 0.918158 0
-3.95884 0.933005 0
-4.66624 -0.485449 0
-6.07153 -0.820584 0
-6.33536 -1.88382 0
-4.78686 -3.21158 0
7.95464 -0.366719 0
7.58259 0.655077 0
6.82248 1.04768 0
6.01917 3.08744 0
3.63973 4.20526 0
3.54231 5.08361 0
2.05706 6.67658 0
2.5754 7.39653 0
-1.85457 7.8989 0
-1.73558 6.95916 0
-2.96203 5.58233 0
-2.59516 3.43388 0
-4.23116 3.70938 0
-5.59274 2.3694 0
-7.48487 0.851626 0
-7.33236 0.315761 0
8.48609 1.09932 0
8.48602 1.10182 0
6.93271 3.09942 0
7.32241 4.32319 0
6.00534 5.54696 0
6.19019 6.24523 0
5.3466 7.24058 0
5.03963 7.76865 0
-2.56649 10.2113 0
-2.84423 9.82574 0
-5.97389 6.82629 0
-5.2989 6.05332 0
-6.00733 4.66424 0
-5.9216 4.50014 0
-8.47627 1.35295 0
-8.31774 0.994263 0
10.0005 1.46914 0
10.281 2.44425 0
9.44658 3.39793 0
10.5866 3.86799 0
10.2175 5.38686 0
10.3756 6.11136 0
9.33183 10.716 0
10.203 12.8437 0
-9.46158 11.839 0
-9.46145 11.8365 0
-9.93854 5.94833 0
-9.63805 5.42437 0
-9.9749 4.78618 0
-9.21773 3.69576 0
-10.0078 2.42721 0
-9.53003 1.44451 0
4.25082 -7.56784 0
5.4388 -6.97426 0
6.26492 -6.53446 0
8.55821 -4.84316 0
9.79242 -3.35159 0
11.0259 -0.955886 0
11.1162 -0.772491 0
11.7715 0.341136 0
12.4633 2.31016 0
12.6349 3.11525 0
12.6236 6.65513 0
12.7511 13.4373 0
-13.0345 12.3295 0
-12.5094 5.89251 0
-12.4154 4.60066 0
-12.0088 2.04483 0
-11.103 0.114189 0
-10.2187 -0.974655 0
-9.59149 -1.69218 0
-8.63826 -3.00902 0
-6.63888 -5.0934 0
-4.51268 -6.43046 0
-2.37211 -7.35443 0
0.662202 -8.06346 0
12.3981 8.15312 0
8.31854 8.12568 0
-12.7821 8.40241 0
-9.89013 9.21339 0
-0.126906 0.448355 0
1.16691 0.588779 0
-1.72479 2.46261 0
-0.921884 0.753396 0
4.62549 2.1878 0
4.99392 3.1252 0
0.362701 8.14287 0
0.169229 6.99931 0
-1.03851 4.80308 0
-2.21371 4.47727 0
6.01812 3.08969 0
5.10402 5.03632 0
4.11211 5.49943 0
4.07127 6.88003 0
2.00651 8.43597 0
2.00463 8.43431 0
-2.30953 8.09315 0
-3.86948 6.25942 0
-3.41738 5.58625 0
-4.36712 4.29312 0
1.64762 -2.13762 0
0.230855 -3.18491 0
6.71574 -0.805357 0
5.68264 -2.39109 0
5.30077 0.0847237 0
3.25205 0.818162 0
-8.80804 7.6007 0
-5.79472 7.52775 0
3.24955 0.818122 0
1.7967 1.44307 0
-9.22471 3.62895 0
-7.8061 3.03928 0
-0.403372 -5.17869 0
-0.724569 -7.87074 0
14.2608 28.0531 0
17.4003 26.8032 0
1.62544 -5.64379 0
1.68313 -4.19017 0
2.53723 5.42812 0
1.39649 4.36819 0
8.1674 7.65365 0
5.34667 7.2431 0
7.91257 18.5399 0
-0.184914 10.126 0
-2.34218 -4.3587 0
-2.95833 -7.1303 0
-4.07123 -1.3922 0
-4.92771 -2.59313 0
-5.17666 -6.06801 0
-4.18203 -3.59221 0
0.466244 4.8065 0
-0.431529 4.34843 0
9.42132 3.2463 0
7.86886 2.38667 0
5.92485 -3.64942 0
7.71593 -5.57173 0
2.22224 -8.07737 0
2.18414 -6.05545 0
-5.88116 -2.49833 0
-7.41848 -4.41712 0
-5.16944 1.2794 0
-6.46541 0.00751573 0
7.80829 -0.871113 0
10.3306 -2.44115 0
-12.2766 3.43459 0
-9.24038 3.65725 0
12.8147 5.17481 0
10.7405 4.89397 0
-2.54815 -0.00643825 0
-3.41893 -1.38534 0
-9.14878 -2.2617 0
-6.43939 -0.557859 0
-3.41969 3.22092 0
-4.13071 1.22223 0
-6.65355 3.24239 0
-6.21616 2.44695 0
8.27666 4.53275 0
8.46257 5.0298 0
-0.939359 9.94328 0
-0.666358 8.77565 0
12.4021 8.16237 0
9.68853 9.31965 0
9.44322 11.6007 0
1.65794 9.03637 0
7.79479 6.27545 0
8.97002 7.03707 0
-7.15133 4.74833 0
-7.50118 5.49981 0
-2.36737 12.2797 0
0.528382 11.478 0
-9.82109 9.71574 0
-4.03644 9.63916 0
8.96858 7.03913 0
12.442 7.68759 0
-10.5861 10.8769 0
-13.1111 11.3456 0
-12.5634 6.89047 0
-9.07558 7.15132 0
12.0133 16.1529 0
9.52144 14.299 0
7.96421 8.56554 0
5.83317 8.66497 0
-9.07563 7.1488 0
-7.19639 6.47198 0
1.90802 12.0445 0
3.69001 10.4187 0
-4.3125 8.02044 0
-3.5535 7.39358 0
4.37864 10.193 0
3.54326 8.58776 0
12.6602 9.86788 0
9.86946 9.86947 0
-2.98425 11.8312 0
-4.45249 10.6025 0
-13.2695 23.6791 0
-0.185143 13.1395 0
-6.38099 8.06327 0
-4.31647 9.82747 0
-12.6406 7.61978 0
-9.2572 8.18987 0
5.22155 14.3602 0
7.52835 12.3564 0
-1.3541 11.8824 0
-0.775991 10.1502 0
-9.99593 15.1187 0
-13.2963 14.1101 0
18.1094 32.0385 0
1.78842 13.1941 0
-2.96795 14.6404 0
-9.93389 15.5466 0
-10.5513 10.1962 0
-13.0007 9.45036 0
-6.41834 11.8694 0
-5.86135 10.7923 0
-6.25471 8.83351 0
-7.03372 9.75388 0
12.8028 11.604 0
10.189 12.1938 0
-10.8068 16.5758 0
-13.872 16.4413 0
5.58006 9.77775 0
4.39874 10.1244 0
9.51248 13.4858 0
7.5556 12.9248 0
3.46852 11.615 0
5.95247 13.6709 0
-2.19642 13.8724 0
-0.794611 14.1874 0
13.2553 18.1158 0
10.3672 19.338 0
-0.13266 13.1295 0
0.738199 13.8302 0
11.0783 21.0769 0
3.31257 13.7868 0
12.7158 10.7188 0
9.60114 11.0903 0
-8.26544 11.3507 0
-8.29181 10.4709 0
-9.14953 8.54123 0
-7.03789 9.36668 0
-9.61984 14.7716 0
-5.96339 13.7555 0
20.5079 35.6314 0
22.707 35.5186 0
1.33575 11.3995 0
2.19707 9.86126 0
-3.91143 13.514 0
-3.76825 12.1982 0
-13.135 13.3819 0
-9.82966 14.0582 0
-0.634867 15.8543 0
-0.636985 15.8529 0
7.18162 10.7009 0
6.7127 11.6168 0
8.18031 9.07834 0
7.06592 10.4365 0
-10.7442 16.0436 0
-13.5148 14.8565 0
-2.78303 14.6442 0
-1.78623 16.1796 0
1.02515 15.0528 0
2.48824 15.073 0
5.69542 11.7537 0
5.36015 12.4356 0
-7.15083 15.0453 0
-6.88694 15.5953 0
-8.86064 12.6275 0
-6.18525 12.8415 0
3.29393 13.7352 0
4.14484 12.4756 0
-10.1123 18.5921 0
-3.83841 15.8523 0
13.7232 18.999 0
11.1852 20.2102 0
-16.4002 22.546 0
-13.7801 22.7987 0
7.55165 14.7121 0
6.79199 13.7729 0
11.9955 16.2523 0
8.03431 17.5765 0
3.14887 16.4531 0
4.82971 17.0652 0
0.534341 17.9594 0
2.54043 16.9082 0
-1.06821 24.4484 0
-3.63087 22.7894 0
-3.07792 21.0935 0
-4.30262 17.8428 0
-6.01933 12.6128 0
-3.97005 12.0732 0
-9.33916 17.5303 0
-7.86011 16.4845 0
6.59409 21.9374 0
6.06858 18.8975 0
-13.0386 12.6888 0
-9.16966 13.0924 0
-9.10396 13.2576 0
-6.89651 14.2654 0
-0.644221 18.246 0
-0.383184 17.8989 0
13.8006 27.4658 0
1.68753 21.7184 0
16.368 23.8096 0
14.1205 24.4872 0
-14.8317 18.2005 0
-11.9745 19.0766 0
-5.17703 14.1356 0
-5.02026 15.5235 0
6.93336 15.6137 0
5.83275 15.601 0
0.718681 15.5429 0
1.32103 16.6444 0
9.71066 13.9514 0
12.5747 14.4242 0
11.9932 16.2194 0
7.53762 15.0527 0
-11.6396 20.098 0
-4.28802 18.3668 0
-2.35622 17.2683 0
-3.44207 17.1181 0
2.91936 21.9769 0
3.54066 21.2292 0
-5.53762 15.9596 0
-5.43455 17.2354 0
3.17228 15.8006 0
5.22005 14.9597 0
-2.00414 21.0312 0
-0.540383 22.5672 0
1.84316 27.8252 0
11.5279 27.9776 0
-19.5274 37.1214 0
-21.0848 36.2252 0
-20.9651 47.9316 0
-2.59514 23.9595 0
-13.966 16.6104 0
-11.7681 18.7568 0
-1.8761 18.165 0
-3.34262 19.095 0
-7.04488 18.7529 0
-5.59695 19.1911 0
12.0918 23.8891 0
10.8708 27.1441 0
4.02652 19.4165 0
5.50888 19.6814 0
10.3194 19.5121 0
7.37666 20.6388 0
12.2445 16.6342 0
10.1766 19.1105 0
-13.3564 22.0664 0
-3.70042 20.3748 0
15.4253 22.0912 0
13.6719 23.8086 0
1.60145 18.9861 0
2.75824 18.2263 0
-15.5233 19.5954 0
-13.3886 20.9948 0
-1.90357 26.1604 0
3.45169 23.3058 0
-0.0192266 19.8188 0
1.27186 20.132 0
-7.84879 16.6777 0
-6.49602 17.6825 0
7.16073 16.8187 0
5.63601 17.6879 0
-1.50304 20.2303 0
-2.28612 18.9178 0
11.989 16.2313 0
7.33343 16.3199 0
-2.68633 23.4303 0
-1.45548 22.3442 0
-5.55166 19.9239 0
-4.59601 20.6168 0
-4.40275 22.913 0
-5.05341 21.9572 0
-13.8781 16.4494 0
-10.0129 18.1634 0
4.53532 23.2939 0
5.15521 21.9957 0
-0.34923 28.9657 0
21.4928 58.2165 0
-7.81225 19.6358 0
-7.5508 20.8163 0
10.5867 71.529 0
10.8368 73.0753 0
-9.92504 25.6702 0
-8.04659 28.3369 0
8.50507 18.958 0
7.23281 20.303 0
14.1782 19.8231 0
11.4803 21.3446 0
4.81489 21.3751 0
5.69632 20.116 0
1.6678 19.786 0
3.21883 20.2675 0
2.84985 23.9846 0
4.80382 27.7398 0
3.80393 18.5912 0
4.94586 17.4876 0
1.25143 22.1694 0
1.60857 23.6023 0
12.0368 16.3453 0
8.47991 18.8277 0
-6.98562 34.283 0
-4.70403 30.5709 0
-13.7874 25.0561 0
-16.7433 24.4214 0
-0.442035 20.3335 0
0.104108 21.8905 0
-7.01331 21.0096 0
-6.7037 21.9513 0
-9.35219 17.8912 0
-7.04546 18.7505 0
7.8593 24.1749 0
8.75776 22.2926 0
-16.1752 21.3622 0
-13.6286 21.6507 0
-7.13216 22.6015 0
-7.11675 24.251 0
4.80046 32.0968 0
8.34373 30.0846 0
-14.2505 26.856 0
-9.75117 26.7617 0
7.74738 24.8137 0
5.23429 26.4616 0
2.16354 27.5083 0
1.1397 25.5482 0
-4.66089 24.7377 0
-4.48201 24.8768 0
20.2375 34.6391 0
22.124 33.5895 0
-0.253253 23.7207 0
0.984618 24.1469 0
-9.13547 21.5212 0
-9.28505 21.8914 0
6.70003 36.6083 0
13.3188 44.4482 0
-3.22755 24.6973 0
-2.68584 25.9975 0
13.8914 25.0638 0
11.5002 25.665 0
-20.2339 41.0301 0
-22.2785 40.1577 0
-18.5066 39.3039 0
-8.39843 33.3189 0
9.02319 21.6155 0
8.55759 20.7616 0
-10.2569 23.7867 0
-8.7208 22.6642 0
11.8396 23.5166 0
9.45619 23.5967 0
-1.87121 36.2698 0
-0.561211 30.6642 0
-9.43314 19.4826 0
-9.94843 20.3841 0
16.8062 25.0615 0
14.3819 25.6604 0
14.5868 20.4849 0
12.2326 22.3002 0
16.759 30.4025 0
12.9551 31.659 0
-1.81236 28.9117 0
-1.48903 27.2339 0
-16.1185 31.3303 0
-18.224 30.0829 0
3.0068 25.1828 0
1.89626 25.9175 0
7.45777 29.251 0
6.51886 26.1256 0
5.09855 23.8551 0
4.21354 25.1626 0
-6.03747 27.7916 0
-5.45051 28.592 0
7.08827 22.6022 0
6.87851 23.2624 0
5.7067 29.4333 0
6.38269 32.081 0
-13.7558 25.1576 0
-10.6085 25.3871 0
18.3472 31.3268 0
20.5847 30.4824 0
-8.57822 25.0444 0
-5.84007 27.1248 0
-14.6095 33.904 0
-10.5609 31.5436 0
3.35088 31.5577 0
2.94211 31.8557 0
-16.573 23.574 0
-13.4452 23.9582 0
-17.0011 25.5953 0
[...]
CELL_DATA 863
SCALARS cell_division_count float
LOOKUP_TABLE default
1
0
1
0
0
0
1
0
0
1
1
1
1
1
1
1
0
1
1
1
1
1
1
0
1
1
1
1
1
1
1
1
2
4
3
1
1
0
0
1
1
0
0
0
1
2
3
0
1
0
0
1
1
1
1
1
0
0
3
0
1
2
3
1
1
1
1
1
1
1
2
2
1
1
1
1
2
1
1
1
3
1
1
2
9
1
1
1
1
1
1
1
1
1
1
1
1
1
1
1
1
1
2
3
5
2
1
3
5
2
2
2
5
3
2
4
2
3
5
5
6
3
3
6
3
4
6
9
3
5
4
4
8
5
6
6
5
4
5
14
5
5
5
7
5
4
6
4
10
5
3
4
6
6
6
7
6
6
11
7
8
7
6
7
8
18
11
6
8
9
4
7
8
13
6
7
7
8
8
3
6
12
10
11
9
7
11
13
9
16
8
11
10
11
9
9
5
14
6
10
8
13
10
10
8
11
6
10
11
14
8
11
13
11
9
12
9
8
9
11
13
9
11
6
16
13
11
12
11
13
8
13
13
12
15
14
10
8
12
13
14
11
12
14
17
9
14
15
15
12
7
9
14
15
11
14
14
14
13
13
12
12
8
12
16
14
8
9
17
14
15
17
14
14
13
11
14
14
14
15
14
15
14
8
15
9
9
14
13
13
14
12
12
10
12
12
14
15
7
13
13
15
11
14
14
14
8
13
15
12
16
15
15
15
13
14
15
16
12
15
19
10
11
14
16
14
16
17
14
15
12
7
13
13
19
14
15
13
16
16
13
16
15
12
15
14
17
13
10
9
14
18
13
15
14
15
11
17
15
15
16
15
14
14
13
15
14
21
16
15
17
15
15
15
17
8
16
15
15
16
13
14
10
19
16
17
12
16
18
14
18
16
15
9
16
15
14
15
22
16
19
14
15
15
22
18
14
17
8
11
11
14
15
12
17
15
15
16
17
15
16
15
16
16
16
21
16
15
15
17
20
16
20
17
17
18
15
19
14
16
21
11
11
13
14
16
17
18
20
19
17
18
17
17
17
15
17
16
17
16
19
12
11
16
17
17
20
13
16
19
15
16
15
19
20
19
20
15
20
23
17
19
18
20
20
15
14
18
16
16
16
17
19
16
18
15
17
17
17
13
17
18
22
17
18
17
20
22
17
16
22
21
20
21
20
16
11
22
17
18
17
15
19
17
16
19
21
17
17
18
13
20
13
21
17
18
17
20
18
22
18
17
13
17
15
18
23
19
17
19
23
21
19
22
16
17
23
22
12
16
14
16
20
10
21
16
19
17
22
20
17
22
19
18
22
21
18
22
18
17
12
14
16
20
20
18
20
21
21
18
20
19
18
18
17
16
18
19
19
22
20
11
19
19
14
16
22
21
24
17
19
20
22
14
19
22
21
23
19
19
21
20
22
21
18
14
21
21
22
18
21
18
21
21
20
22
22
21
14
18
20
13
21
19
21
20
21
17
13
19
24
22
21
22
21
21
21
17
20
22
22
23
18
23
17
19
18
22
22
21
22
14
20
19
24
21
21
17
21
14
21
23
20
23
20
15
20
20
20
20
22
18
22
15
20
22
19
22
21
20
18
21
18
18
18
20
18
21
23
21
19
16
24
24
21
25
23
21
19
20
15
21
21
22
20
23
23
20
21
16
22
23
15
21
20
22
20
22
23
22
19
23
22
22
19
22
22
21
22
18
21
14
21
18
20
22
22
19
24
14
15
20
13
18
22
21
18
22
19
20
19
21
23
15
24
15
20
21
22
21
22
22
21
24
21
14
14
24
21
14
21
22
23
15
21
21
20
23
21
18
22
22
22
23
21
22
22
17
21
23
17
21
19
16
21
21
21
20
22
23
15
23
22
21
20
23
22
23
22
22
22
21
24
22
23
23
19
22
21
21
21
24
20
21
15
23
21
20
19
25
23
21
24
20
24
19
24
16
19
23
24
21
20
SCALARS cell_time float
LOOKUP_TABLE default
2981
2.22229e+13
3001
4.48239e+13
2.67348e+11
1.25633e+10
3011
2.68224e+09
9.19769e+11
3001
3001
2991
2961
3011
2931
2971
1.22899e+06
3011
2981
3011
3011
2911
2951
26793.4
3011
3011
3011
3011
3011
2901
2961
2901
2861
2601
2751
2851
2991
1.00108e+18
2.94533e+15
2961
2951
108093
4355.76
3067.34
2941
2841
2641
3058.01
2951
5709.01
3326.18
2931
2971
2981
2991
2961
1.12104e+13
24176.3
2431
5047.96
2961
2881
2701
3011
3011
3011
3011
3011
3011
3011
2891
2771
3011
3001
3001
3001
2831
2991
2991
2991
2131
2981
2981
2841
1761
2981
2971
2971
2961
2961
2961
2961
2961
2951
2951
2951
2941
2931
2931
2911
2901
2901
2891
2761
2581
2861
2851
2701
2481
2841
2841
2841
2131
2421
2831
2451
2771
2761
2491
2451
2341
2721
2701
2331
2701
2421
2431
2121
2641
2491
2621
2621
1401
2431
2321
2351
2551
2331
2521
1351
2491
2491
2481
2181
1611
2451
2221
2201
1851
2431
2421
2421
2421
2411
2351
2151
2341
2331
1691
1761
1681
2141
1731
2071
2141
671
1821
2221
2211
1761
2201
2181
2181
1031
1541
2011
2151
1871
2141
2131
1861
1551
2001
1761
2081
2071
1701
1491
1181
401
1821
1871
1991
1581
1761
1561
1961
1351
1941
1941
1341
1361
1911
1881
1871
1871
1861
1851
1831
1371
1821
1811
1091
1801
1021
1251
1761
1541
1761
1761
1481
1761
1751
1731
911
911
1701
1701
1691
1471
1681
1231
1221
1191
1191
1391
1621
841
1601
1591
761
1591
1211
91
431
1561
1351
1201
671
1551
1241
1331
911
1231
751
1231
1231
1231
1301
1471
1291
1291
921
1251
871
971
1401
1401
691
1391
821
451
1371
1171
1361
681
1361
1351
1351
101
1351
871
1351
1341
1211
1151
1331
1211
1211
1301
851
1291
1281
1271
1251
1251
871
1101
1241
1241
1231
1231
841
1231
1231
1231
1041
1221
951
1211
671
801
1211
951
1211
1031
1201
921
1191
1191
391
461
1181
1011
681
1171
551
541
1001
671
521
1141
341
1131
481
1111
1101
1091
901
631
1081
851
1071
1061
881
1061
701
1041
1041
881
1041
411
1031
831
1031
771
391
681
841
1011
161
861
1001
121
641
621
971
111
831
951
491
951
821
951
621
921
921
921
921
911
911
911
911
391
791
321
431
901
441
891
401
641
881
881
871
871
871
81
161
481
291
861
121
861
231
631
851
701
841
551
841
841
841
691
581
831
701
831
701
821
821
821
581
681
811
81
461
801
801
651
311
791
241
521
531
201
771
361
761
761
81
751
751
611
91
631
451
601
261
401
541
111
701
511
701
701
701
471
691
541
391
691
681
681
681
521
421
391
681
571
671
671
671
121
311
21
201
231
101
91
541
81
521
321
231
161
471
131
641
431
631
481
501
631
331
621
621
521
411
611
441
601
181
601
601
311
251
171
581
581
111
161
431
11
341
551
551
231
541
421
541
381
421
541
541
111
71
541
531
531
121
111
321
61
521
521
521
51
521
131
281
521
311
511
31
271
51
501
491
381
171
361
481
51
481
481
51
51
471
471
471
471
251
461
61
461
461
451
71
331
451
51
451
441
141
101
241
51
321
431
431
431
431
431
331
211
261
201
301
421
171
421
411
121
411
401
401
201
401
71
251
391
391
391
191
1
291
91
11
71
381
381
101
261
371
131
101
81
361
111
81
61
101
351
141
91
51
151
101
81
331
331
331
211
331
81
121
201
141
211
321
321
111
131
171
311
101
311
311
1
51
81
301
81
301
41
71
291
11
151
291
71
281
111
71
151
271
161
61
271
51
261
261
261
11
41
91
261
261
261
71
31
251
51
251
111
251
251
251
241
151
241
231
231
231
231
71
91
231
221
211
211
211
211
201
201
201
41
61
201
201
71
111
41
201
21
51
71
51
101
61
191
31
181
41
21
171
171
171
161
161
91
161
161
161
51
161
161
1
161
11
61
61
151
151
151
151
141
141
141
41
141
61
131
131
131
131
131
1
121
121
31
121
121
121
111
111
111
111
111
111
111
111
111
111
101
101
101
101
101
101
101
101
101
1
91
91
11
91
91
91
91
91
81
81
81
1
81
81
81
81
81
81
81
71
71
71
71
71
71
71
71
71
71
71
61
61
61
61
61
61
61
61
61
51
51
51
51
51
51
51
51
51
51
51
51
51
51
41
41
41
41
41
41
31
31
31
31
21
21
21
11
11
11
11
11
11
1
1
1
1
1
1
SCALARS cell_area float
LOOKUP_TABLE default
3.24162
3.29964
3.29283
3.35564
3.3509
3.34298
3.32572
3.37383
3.34818
3.28113
3.3359
3.28154
3.38526
3.31816
3.30519
3.32933
3.39791
3.28774
3.34507
3.39639
3.39078
3.3384
3.33845
3.37089
3.35698
3.37422
3.43814
3.40011
3.38985
3.32815
3.24635
3.29582
3.35005
3.33533
3.44186
3.24858
3.3441
3.25256
3.26103
3.24852
3.23669
3.27775
3.26132
3.27811
3.21936
3.28347
3.25408
3.2621
3.25834
3.24772
3.26746
3.27306
3.21633
3.25705
3.24469
3.2421
3.20943
3.21655
3.26249
3.19549
3.24604
3.30499
3.2673
3.27961
3.33627
3.2841
3.39711
3.35003
3.27877
3.35507
3.45021
3.34916
3.35535
3.28615
3.24765
3.27391
3.33979
3.35023
3.2305
3.22202
3.21666
3.25829
3.33365
3.33001
3.36766
3.22251
3.29605
3.25215
3.36831
3.28652
3.22444
3.20363
3.21571
3.30298
3.25139
3.24407
3.25801
3.32326
3.26283
3.29912
3.28875
3.26256
3.39985
3.23068
3.2909
3.23933
3.32685
3.38138
3.28924
3.27812
3.25604
3.27078
3.27051
3.2915
3.24427
3.31402
3.35457
3.40394
3.25329
3.42089
3.30086
3.34648
3.2703
3.34618
3.40409
3.25606
3.43844
3.39391
3.21363
3.27764
3.33259
3.20453
3.27561
3.36909
3.31173
3.35237
3.36383
3.25566
3.36231
3.30516
3.24746
3.27853
3.31354
3.27135
3.23171
3.34564
3.39908
3.26587
3.38123
3.3115
3.29835
3.22727
3.37041
3.3591
3.38133
3.38412
3.33598
3.30654
3.35212
3.26458
3.25067
3.40845
3.28032
3.31741
3.36641
3.38153
3.369
3.32645
3.29868
3.36453
3.26818
3.32289
3.43043
3.2928
3.26548
3.22376
3.35868
3.36457
3.39156
3.23675
3.29508
3.30722
3.43694
3.39043
3.38795
3.31539
3.38713
3.40694
3.29713
3.35542
3.26918
3.41115
3.40295
3.28014
3.35414
3.26799
3.22841
3.28509
3.23063
3.34134
3.25176
3.34724
3.42098
3.35145
3.29855
3.39199
3.28554
3.35086
3.38558
3.36861
3.30421
3.39258
3.40591
3.35879
3.24131
3.31888
3.34042
3.26673
3.37251
3.37118
3.44964
3.35058
3.40341
3.27193
3.39364
3.27891
3.39903
3.33157
3.30729
3.37195
3.21171
3.36151
3.4405
3.25936
3.35174
3.41869
3.43214
3.27242
3.39371
3.38684
3.29047
3.37576
3.26373
3.33124
3.34254
3.33789
3.38201
3.294
3.32829
3.31631
3.28179
3.23963
3.33346
3.38393
3.30043
3.39511
3.32325
3.35538
3.41068
3.34118
3.3527
3.3033
3.22722
3.36876
3.38356
3.417
3.26631
3.27512
3.40855
3.37875
3.38786
3.3317
3.37928
3.39164
3.38533
3.31785
3.34465
3.33498
3.3525
3.2759
3.25946
3.36097
3.37244
3.25581
3.38065
3.25203
3.28866
3.28769
3.35705
3.34991
3.36918
3.30587
3.3743
3.27845
3.39155
3.35512
3.37602
3.40088
3.2982
3.40052
3.33634
3.38734
3.33548
3.34934
3.35101
3.33071
3.24799
3.40457
3.3931
3.30872
3.41201
3.33672
3.31962
3.33629
3.40104
3.31867
3.40037
3.37604
3.35488
3.35278
3.32277
3.31661
3.28365
3.34537
3.38036
3.35646
3.33217
3.30524
3.37513
3.32282
3.31533
3.27032
3.30142
3.33971
3.35532
3.38301
3.35631
3.30281
3.38422
3.3805
3.35406
3.31127
3.27496
3.2905
3.33082
3.35985
3.34477
3.35123
3.24062
3.33649
3.43218
3.39279
3.33572
3.35474
3.32019
3.35891
3.28967
3.37317
3.36011
3.35513
3.33821
3.31893
3.35632
3.2771
3.30439
3.28972
3.34919
3.32632
3.3946
3.35052
3.38084
3.31981
3.41136
3.35804
3.33764
3.26409
3.36831
3.31591
3.38548
3.37033
3.29504
3.30137
3.31092
3.36506
3.3534
3.33699
3.31087
3.37257
3.38869
3.31391
3.38202
3.33162
3.33798
3.30337
3.28539
3.37547
3.31238
3.32574
3.31495
3.3143
3.30708
3.30944
3.31616
3.38265
3.35986
3.34795
3.34503
3.29901
3.27963
3.29673
3.29441
3.3646
3.37411
3.29637
3.36468
3.31816
3.32482
3.35871
3.35204
3.36343
3.32157
3.37604
3.367
3.43347
3.37984
3.34716
3.37669
3.36205
3.39465
3.3847
3.34912
3.37521
3.35124
3.33645
3.33279
3.32013
3.30557
3.37659
3.32178
3.3352
3.36162
3.28306
3.26404
3.30331
3.28099
3.31626
3.35753
3.37345
3.34101
3.40901
3.34901
3.28495
3.30624
3.38827
3.38105
3.30867
3.32878
3.3384
3.36965
3.33043
3.37235
3.27885
3.31183
3.39302
3.36201
3.41467
3.33684
3.31147
3.32454
3.40037
3.31216
3.39177
3.32852
3.31808
3.30983
3.33746
3.35804
3.3126
3.36558
3.34114
3.35788
3.34081
3.36517
3.39684
3.34173
3.32348
3.31217
3.36555
3.30288
3.32299
3.39674
3.32086
3.37719
3.31889
3.35032
3.35386
3.32794
3.33092
3.32534
3.30554
3.34441
3.35723
3.36843
3.35833
3.37394
3.33221
3.34131
3.32058
3.39111
3.3812
3.29653
3.33074
3.33463
3.34893
3.34036
3.35665
3.253
3.39743
3.30377
3.36371
3.34821
3.31787
3.43589
3.3955
3.38789
3.29055
3.33226
3.34385
3.30398
3.34153
3.32338
3.318
3.35227
3.34438
3.33269
3.3722
3.35385
3.30575
3.3762
3.38138
3.38401
3.3598
3.31728
3.38233
3.33277
3.30445
3.3095
3.39311
3.38846
3.37778
3.41244
3.24931
3.41744
3.32851
3.36773
3.34967
3.32509
3.34041
3.31548
3.34252
3.3069
3.32829
3.36572
3.24051
3.37463
3.34474
3.32523
3.35367
3.29374
3.32113
3.34029
3.32835
3.43858
3.35755
3.42142
3.32505
3.37201
3.33222
3.35303
3.26219
3.31122
3.25516
3.30206
3.38986
3.39275
3.33766
3.35936
3.36178
3.29036
3.36375
3.35055
3.31433
3.3572
3.3631
3.33379
3.28742
3.30988
3.27857
3.37286
3.31541
3.29791
3.26377
3.36704
3.382
3.32065
3.34454
3.34851
3.32959
3.29698
3.31659
3.32354
3.31188
3.32432
3.33189
3.32942
3.2692
3.31465
3.41137
3.3187
3.35752
3.35087
3.33896
3.30245
3.33131
3.35433
3.3142
3.28019
3.26982
3.37383
3.35455
3.3272
3.296
3.38364
3.38432
3.35031
3.35201
3.39038
3.36694
3.32508
3.35922
3.37673
3.31919
3.36438
3.35304
3.34582
3.39483
3.34089
3.34292
3.31247
3.35366
3.32475
3.26502
3.25651
3.3366
3.3215
3.3217
3.36778
3.32975
3.29617
3.34306
3.36285
3.38365
3.39025
3.30423
3.32147
3.32706
3.34516
3.31918
3.33866
3.31936
3.30854
3.3324
3.39827
3.33016
3.3581
3.32445
3.33329
3.34123
3.31832
3.32779
3.34639
3.33473
3.34315
3.37728
3.37347
3.31269
3.32925
3.37976
3.32546
3.31987
3.32607
3.39711
3.34609
3.30167
3.33151
3.29069
3.42426
3.37348
3.32378
3.33012
3.33483
3.34727
3.30583
3.33365
3.31611
3.30825
3.28565
3.31402
3.34903
3.35761
3.32484
3.35947
3.3413
3.34028
3.32936
3.33116
3.3216
3.33458
3.32692
3.33275
3.34133
3.32951
3.32784
3.34669
3.31333
3.32607
3.35279
3.33067
3.34399
3.2673
3.33366
3.32286
3.33099
3.33902
3.33574
3.31641
3.33936
3.28518
3.35572
3.36593
3.32378
3.34078
3.29595
3.3334
3.33734
3.3411
3.33333
3.33934
3.37747
3.34455
3.33791
3.30536
3.3725
3.32348
3.32189
3.34101
3.30867
3.34796
3.35741
3.3407
3.32937
3.311
3.30534
3.34217
3.345
3.32018
3.3234
3.32491
3.33668
3.30604
3.30559
3.31821
3.39021
3.31325
3.36942
3.29763
3.3408
3.324
3.32569
3.2899
3.30623
3.3365
3.33555
3.29955
3.36591
3.33382
3.32409
3.34921
3.294
3.31696
3.29591
3.33501
3.35382
3.27968
3.31594
3.32663
3.40609
3.35091
3.30185
3.29803
3.33611
3.3473
3.30824
3.30078
3.29348
3.3223
3.29017
3.27834
3.36205
3.30634
3.3217
3.29472
3.32173
3.37928
3.30109
3.30219
3.31746
3.32808
3.3026
3.29591
3.36613
3.38359
3.39988
3.3404
3.36346
3.28082
3.31802
3.29669
3.342
3.28864
3.348
3.35796
3.32193
3.33223
3.33218
3.32511
3.30549
3.33704
3.28358
3.35368
3.29544
3.31673
3.27726
3.31077
3.27388
3.30715
3.3217
3.32289
3.33465
3.31927
3.31177
3.29588
3.32679
3.31732
3.30971
3.29137
3.36827
134
221
3.35052
171
487
3.31616
SCALARS cell_perimeter float
LOOKUP_TABLE default
6.92858
6.94059
6.96575
7.19309
7.12452
6.82024
7.08021
7.64788
6.93368
6.92923
7.38851
7.0015
6.79698
7.24465
7.04226
6.79254
7.17186
6.96868
6.92327
6.97498
6.94398
7.27135
7.24035
7.57618
7.59498
6.95635
7.95605
7.1566
6.90341
7.06914
6.94873
7.04608
8.17525
7.03402
7.12997
7.33532
7.89012
7.51692
7.82281
7.635
8.26353
8.6541
8.18096
7.75436
7.38017
9.586
8.01562
7.63995
8.03847
7.64956
8.11451
8.43053
7.78032
8.06721
7.67046
7.21414
7.4341
7.3878
8.82612
7.32259
7.72347
9.68853
8.59762
7.0354
7.15008
7.24027
6.90049
7.0924
7.18331
6.86421
7.76759
7.07361
7.17217
7.07929
7.24118
7.21581
7.78448
7.26892
6.93571
7.86955
8.22192
6.78986
7.02341
7.85005
7.48286
7.97542
6.82207
7.97546
7.09196
6.99609
7.79399
7.31295
7.64887
7.12892
7.92724
7.96367
7.35872
6.94206
8.21626
7.18849
7.16815
6.94068
7.10797
8.04452
7.20926
7.02928
6.85315
7.49529
7.31527
8.58011
8.64229
8.54945
10.1347
7.21325
7.23687
7.05398
6.9181
7.37241
8.24407
7.17745
7.6326
7.29432
8.92587
7.1588
7.26277
8.62593
7.28168
7.15916
7.7087
7.02552
7.2875
7.77994
8.37743
7.31396
7.29922
7.05371
7.05578
8.24053
6.9537
7.34661
8.19292
6.91076
7.57429
7.55518
7.40434
7.22913
7.18658
9.22191
7.00505
7.33421
7.30481
8.24279
7.10461
7.12935
6.81325
6.83812
8.01353
6.98868
7.5365
8.20715
7.74313
6.81091
10.223
7.31722
7.15624
6.93629
7.01652
7.14485
7.42373
7.1142
9.40531
7.85057
7.17219
7.4
7.56385
8.25171
6.99491
7.12676
6.95564
7.9706
10.9109
6.99292
6.88437
7.03473
6.91933
7.33282
6.96013
6.91873
7.62084
7.23415
9.58789
7.04465
7.22375
7.44338
6.91512
7.24256
8.4526
7.36404
7.57529
6.98075
8.46577
7.00516
7.18411
7.02623
7.04566
6.89967
10.5395
7.06529
6.91139
6.89906
10.133
6.91633
7.07297
7.01784
7.40005
7.03635
7.71968
8.32696
6.98611
6.94631
6.94116
7.01825
7.00032
9.73073
7.27754
8.50403
7.09266
7.0591
7.42583
7.07088
7.69709
7.11815
7.05931
7.38454
7.06918
6.9722
6.88129
7.52835
6.91806
7.02153
6.8992
6.92745
7.56998
7.15366
7.03676
6.92957
6.83864
7.18826
6.8872
7.00782
8.16866
8.27205
6.81932
7.01802
7.56181
7.38352
7.10878
7.26334
6.83606
7.07406
7.25485
7.67222
7.5292
7.13315
7.14543
6.93073
8.17365
8.02213
6.90617
7.05775
7.03142
7.12137
6.86572
7.51295
6.94892
7.88195
6.99868
7.47073
7.51989
6.97644
7.45702
6.91733
6.93916
8.64655
6.79656
7.31105
8.6016
7.47606
7.2017
7.07499
6.92695
7.69145
7.26154
7.77244
7.04398
6.98302
7.05524
7.15271
8.6514
6.97396
7.08318
6.93529
9.71697
7.30956
7.06578
7.08771
8.13926
7.08482
7.09277
7.6666
7.00469
7.44071
7.00587
6.82445
7.30736
7.11228
6.96972
7.19872
6.78959
7.04847
6.92427
8.05169
7.93572
7.1423
6.98017
7.12927
6.99619
7.23047
6.94853
7.04322
7.46548
7.67932
7.24522
7.0358
7.02704
6.96429
7.57075
7.33917
6.92082
7.36801
7.06879
7.11028
7.30814
8.7819
7.01506
7.15868
7.01965
6.9401
7.67441
10.0768
7.37089
6.84217
7.39871
7.09459
7.15637
7.00707
7.12417
6.88573
6.94582
6.94055
7.19372
6.97787
7.01224
7.33768
7.47329
7.21369
7.11502
6.86605
7.18502
7.00654
7.02328
7.0699
6.92086
7.12455
6.88779
7.80705
7.93632
7.05897
7.27891
6.97708
9.16937
6.87846
7.89588
7.07253
6.88229
6.78791
7.25104
7.02299
6.94535
7.02775
6.9363
7.04543
6.87849
9.40874
7.02015
7.00128
7.09922
7.14285
7.07722
6.98192
6.93961
7.07681
7.37454
6.95702
7.08867
6.99838
6.88818
7.19547
7.7505
7.60167
8.96159
7.03631
6.98163
7.95831
6.97025
6.96562
7.29996
6.90137
7.10575
6.99133
7.05447
6.89406
6.97823
7.23607
6.95622
6.88218
7.02664
7.37858
6.89159
6.92286
6.95597
6.98476
7.3903
6.89274
6.94774
6.96899
7.09762
7.19443
6.86073
7.07007
6.99198
7.28365
7.36818
8.03182
7.3287
6.81142
6.88165
7.15848
7.02446
6.99783
6.97358
7.00068
6.94578
6.88611
7.13226
7.10854
7.07729
7.17763
7.01813
6.98857
6.9163
7.58614
7.8387
6.83216
6.95337
6.87858
7.12956
7.13023
7.47479
7.01636
6.94793
6.88907
7.32469
6.92633
6.84856
7.07804
7.41212
7.21705
7.31997
7.19466
6.94341
6.86403
6.91129
7.04573
6.85526
7.08656
7.6447
6.90021
7.04882
6.92657
7.16072
7.28399
6.85394
6.98452
7.2611
8.00302
7.02169
6.9916
6.92705
8.23994
7.06897
7.00048
7.61954
6.95635
7.05801
6.97209
7.06834
7.13604
7.04906
7.10471
6.96243
6.92584
6.99338
6.88977
7.19161
6.97643
7.44523
6.91611
7.28159
6.98917
7.17652
7.09475
7.41891
7.10323
7.47714
6.98056
7.23511
6.98763
7.02491
7.07954
7.27789
7.11908
7.9061
6.87356
6.91548
6.91234
7.03566
7.00036
7.64789
7.12392
6.98393
6.95484
7.11013
6.92907
7.29977
7.14464
7.00493
7.06547
7.14689
7.29487
6.88349
6.94032
7.07058
6.86412
6.96712
7.15578
7.00232
7.05258
7.30454
7.08482
7.55524
7.04959
6.97077
7.32901
7.75012
6.92535
7.16478
7.06635
6.93186
7.04786
6.91841
6.97037
7.02803
6.93508
7.28096
6.94417
7.49352
7.00965
6.88647
6.93732
7.64175
7.31241
6.93535
7.10368
7.02827
6.90785
6.91046
6.88206
7.02544
7.25552
7.17722
7.16726
6.94453
7.24699
7.2425
7.06608
6.96417
6.92679
6.96001
6.96299
6.9909
7.32962
7.20793
7.05818
7.1382
7.16334
7.08509
6.81404
7.10337
7.1346
6.99858
7.06885
6.81331
7.15382
6.88869
6.91101
6.83207
7.648
7.29492
7.13066
7.25501
6.91229
6.9421
6.85765
7.04656
7.32638
7.08795
6.93973
7.22397
6.91417
7.00084
6.93576
6.93632
7.05712
6.98418
6.83365
7.141
6.92738
7.16934
7.20827
7.17494
7.64858
7.15753
7.00783
6.87596
6.81528
6.8677
6.85385
7.09395
7.16171
6.9432
7.09948
6.9804
6.91096
7.04897
7.00489
6.90391
6.93629
6.98097
7.11343
6.97577
6.96831
7.11859
7.1812
7.19316
6.81102
7.07967
6.91476
6.84418
6.82366
7.01495
7.22374
6.93585
6.88245
6.97252
6.93063
7.21204
7.01719
6.86511
7.11783
7.04044
6.94953
7.07671
6.79503
6.86953
7.16749
6.90682
6.9803
6.96642
7.20315
7.05168
7.38143
6.94594
7.2172
6.80682
7.09667
6.98961
7.22993
6.92253
6.88454
6.93525
7.03507
7.02811
7.03028
6.96869
7.21064
7.02807
7.02637
6.78145
6.85206
7.0388
7.45116
6.92418
6.83541
6.96344
6.82941
7.00468
7.19099
6.9748
6.83033
7.19678
6.83929
6.8633
7.46061
7.05148
7.03301
6.90792
7.05914
6.90125
7.09847
7.13865
7.11827
7.10426
7.07079
7.06516
7.00429
6.8572
6.92424
7.41117
7.05675
7.21268
7.01124
7.01368
6.96287
7.30904
6.88767
6.81324
6.98418
6.99515
6.89943
6.97722
7.12606
7.2049
7.03801
6.81278
7.00714
6.93353
7.00449
7.08863
7.16599
7.38335
7.1862
7.13492
6.91931
7.18007
6.843
6.90057
7.0554
6.92845
7.03011
7.12876
6.95589
7.1993
7.17663
7.07407
6.93094
6.94698
6.98896
6.84437
6.92869
7.0267
6.86924
7.12674
7.08855
6.87225
7.14962
7.13934
6.92282
6.95441
7.31859
6.96558
7.02294
7.0115
7.31239
7.05965
6.91081
7.22767
6.89726
7.08431
6.94104
6.93883
6.80897
6.96189
6.99707
7.03498
6.97464
6.83765
7.30916
6.78245
7.1402
7.17807
6.95815
7.09038
7.52324
7.12068
7.13627
7.15514
6.89532
7.00317
7.14305
7.28809
8.29117
7.41144
6.96038
6.98903
7.11752
6.82765
7.12317
6.86464
7.05707
7.10876
7.33704
6.99651
7.20218
6.97829
6.8858
7.03961
6.93341
6.99097
6.89719
7.03571
6.95568
6.99055
7.15511
7.32714
6.96976
6.96501
7.26184
6.92621
6.82239
7.20989
6.94371
7.14969
7.03454
6.97764
6.95617
7.0883
115
135
3.36506
185
501
3.318
SCALARS cell_frequency_modifier float
LOOKUP_TABLE default
4.51025e+18
1.18908e+18
7.4187e+17
6.82553e+15
2.54725e+15