# vtk DataFile Version 2.0
2D-vertex
ASCII
DATASET UNSTRUCTURED_GRID
POINTS 350 float
0.314957 -2.04532 0
2.88459 -1.8197 0
3.26287 -0.909151 0
2.27147 0.132275 0
-0.115974 0.298996 0
-0.851507 -1.11928 0
3.86445 -0.870681 0
4.43687 -0.00716059 0
3.55524 1.41586 0
2.41685 1.08175 0
1.2324 2.23998 0
-0.540754 2.79088 0
-1.33128 1.55756 0
-1.58364 1.50091 0
-2.0858 -0.00869888 0
-1.59948 -0.872433 0
5.0295 -0.158226 0
5.91773 0.765301 0
4.12242 2.14725 0
3.7599 2.05839 0
2.95257 2.94963 0
1.76013 2.86658 0
1.19671 6.14751 0
0.0571727 6.09134 0
-0.643418 4.34879 0
-2.01569 3.62252 0
-1.97992 1.89724 0
-3.35651 1.61677 0
-3.82684 0.723324 0
-3.53509 0.0211619 0
7.01985 0.794019 0
7.69357 1.61879 0
7.45565 2.89937 0
5.29888 3.84042 0
5.82834 4.47455 0
3.42226 5.5482 0
2.73498 6.62488 0
1.65626 6.76894 0
0.516805 9.44113 0
-1.23634 9.38105 0
-0.805999 6.8752 0
-2.59996 6.06397 0
-3.53473 4.77718 0
-4.66225 4.85579 0
-5.32816 3.69824 0
-6.78902 3.44912 0
-7.06689 2.51296 0
-5.4673 1.03587 0
7.96989 3.67798 0
7.65 4.57647 0
6.99813 4.88208 0
6.26575 6.84044 0
3.84304 7.74303 0
3.73358 8.42343 0
2.19242 9.67052 0
2.75774 10.5256 0
-2.33838 10.6085 0
-2.31358 10.0207 0
-3.46586 8.96996 0
-3.15684 7.06521 0
-4.98671 7.58481 0
-6.30827 6.50869 0
-8.27647 5.3603 0
-8.15568 4.72718 0
8.60695 5.08533 0
8.62393 5.15633 0
7.25919 6.95778 0
7.55831 8.33131 0
6.38092 9.26874 0
6.5475 10.1166 0
5.87941 10.8329 0
5.93014 11.2307 0
-3.07812 12.8988 0
-3.22841 12.7773 0
-6.808 11.168 0
-6.14775 9.99634 0
-6.88427 9.00972 0
-6.73787 8.60601 0
-9.22786 6.09357 0
-9.06351 5.58013 0
10.0889 5.54759 0
10.3847 6.66098 0
9.65273 7.66441 0
10.6838 8.12756 0
10.3551 9.75003 0
10.5514 10.6635 0
8.958 15.8431 0
8.04831 19.0229 0
-7.95384 18.3714 0
-8.14308 17.8166 0
-10.5645 11.3576 0
-10.2435 10.5451 0
-10.6301 9.99046 0
-9.88906 8.67493 0
-10.6215 7.44103 0
-10.198 6.28449 0
3.77557 -3.62025 0
5.02146 -3.04583 0
5.91581 -2.59914 0
8.32857 -0.898959 0
9.61827 0.619153 0
10.911 3.03099 0
11.0632 3.32998 0
11.7591 4.5231 0
12.4529 6.56253 0
12.6303 7.46585 0
12.5234 11.1923 0
9.32823 20.4682 0
-9.74243 20.0176 0
-12.5945 11.6495 0
-12.7056 10.0839 0
-12.5366 7.25786 0
-11.7974 5.18933 0
-10.9789 3.95965 0
-10.3305 3.08058 0
-9.30001 1.51284 0
-7.30117 -0.714587 0
-5.14103 -2.16844 0
-2.9674 -3.18378 0
0.0875495 -4.00308 0
11.9746 13.4469 0
9.067 12.6572 0
-11.9879 15.4022 0
-9.91448 15.0861 0
-0.443547 4.09938 0
1.05357 4.24046 0
-2.05009 5.97291 0
-1.42631 4.33781 0
4.83155 5.81604 0
5.17358 6.79213 0
0.142599 10.7436 0
-0.000714696 9.8894 0
-1.43948 8.02954 0
-2.82937 7.75049 0
6.26524 6.84288 0
5.41357 8.64412 0
4.44471 9.01381 0
4.2991 10.1512 0
2.3861 11.1737 0
2.38437 11.1719 0
-3.12324 11.0808 0
-4.66809 9.95664 0
-4.25 9.08944 0
-5.07806 8.20027 0
1.32751 1.72281 0
-0.168522 0.666504 0
6.63973 3.06469 0
5.58451 1.36701 0
5.29665 3.84155 0
3.2519 4.47573 0
-9.32962 12.7706 0
-6.54593 11.6689 0
3.22308 4.46057 0
1.66427 5.06656 0
-9.79299 8.46365 0
-8.37928 7.65792 0
-0.917621 -1.15121 0
-1.32827 -3.75427 0
1.9408 23.0789 0
2.33716 24.5079 0
1.17599 -1.68256 0
1.27849 -0.307066 0
2.59812 8.73762 0
1.42131 7.52567 0
8.93283 11.8332 0
6.00101 11.1252 0
5.1163 20.6118 0
0.289199 12.301 0
-2.90512 -0.269101 0
-3.59704 -2.92073 0
-4.76005 2.69974 0
-5.58811 1.65569 0
-5.85286 -1.75063 0
-4.80707 0.585598 0
0.342052 8.00654 0
-0.744778 7.47187 0
9.60942 7.35768 0
8.02103 6.44484 0
5.73602 0.232613 0
7.40723 -1.66184 0
1.69811 -4.07181 0
1.72151 -2.11002 0
-6.57833 1.79785 0
-8.1085 0.034844 0
-5.99322 5.36889 0
-7.24804 4.32368 0
7.78335 3.08956 0
10.1885 1.56029 0
-12.6826 8.69727 0
-9.89091 8.67323 0
12.7724 9.59345 0
10.8377 9.29991 0
-3.14403 3.86171 0
-3.99067 2.66132 0
-9.8246 2.34642 0
-7.25118 3.81599 0
-4.07895 6.92117 0
-4.84862 5.21404 0
-7.41293 7.70429 0
-6.98909 6.67325 0
8.53897 8.63518 0
8.75575 9.36273 0
-1.09925 12.1638 0
-1.0001 11.4651 0
11.9202 13.9219 0
9.68565 14.2582 0
8.52421 17.1265 0
2.2663 11.3572 0
8.09032 10.3238 0
9.357 11.5291 0
-8.04119 9.30594 0
-8.32457 10.3319 0
-2.67022 14.5528 0
0.766569 13.4694 0
-9.42463 15.802 0
-4.55528 12.9683 0
9.35704 11.5316 0
12.1838 12.5627 0
-9.17737 17.6647 0
-10.6321 18.8915 0
-12.3861 13.0272 0
-9.62456 12.4508 0
8.09771 21.5802 0
6.97222 20.0331 0
8.70148 12.9627 0
6.68693 12.5682 0
-9.59342 12.3316 0
-7.89633 11.1056 0
2.30715 14.4055 0
4.32484 13.4143 0
-5.13624 11.7668 0
-4.3165 10.6928 0
5.02288 13.4188 0
4.516 11.6614 0
11.5985 15.9647 0
9.67791 15.3178 0
-3.06182 14.4056 0
-4.89309 14.145 0
-1.10993 22.4622 0
-0.274909 14.725 0
-7.15063 12.6143 0
-4.97934 13.4762 0
-12.2121 14.0824 0
-9.7064 13.7257 0
4.59304 17.9603 0
7.00677 16.861 0
-1.21824 13.7284 0
-0.877971 12.3773 0
-5.39962 21.6626 0
-6.57215 23.1807 0
0.847888 22.8139 0
1.92333 15.4404 0
-2.96431 17.4809 0
-4.64164 21.8074 0
-9.77478 16.4995 0
-11.6125 16.9336 0
-6.1496 16.4114 0
-6.1826 14.9296 0
-6.89771 13.1237 0
-7.40537 14.5716 0
10.5654 18.6916 0
8.78666 17.975 0
-2.78079 22.8814 0
-2.63657 24.7154 0
6.19824 13.4465 0
5.02486 13.4172 0
7.48879 19.0452 0
6.53619 17.677 0
3.83817 14.3845 0
5.23046 17.76 0
-2.25347 15.7635 0
-0.836124 15.7977 0
5.73771 23.2716 0
4.74876 21.8185 0
0.130475 14.6731 0
1.05579 15.6965 0
2.88839 21.7562 0
3.18164 16.8163 0
11.1447 17.3221 0
9.08333 16.5871 0
-7.52686 16.8145 0
-8.21317 15.7606 0
-9.44574 14.0894 0
-7.60236 14.1085 0
-5.63314 20.995 0
-4.76663 17.8571 0
0.146542 23.3371 0
0.243033 24.8247 0
1.80819 13.5313 0
2.76797 12.3714 0
-3.52131 17.1729 0
-3.891 15.2231 0
-7.87238 22.0816 0
-6.58067 20.7674 0
0.598996 17.2615 0
-0.442829 16.8351 0
7.36571 15.1353 0
6.63324 15.7242 0
8.79418 13.7458 0
7.35359 14.5754 0
-4.27517 22.7228 0
-4.97662 24.1409 0
-2.69198 17.3275 0
-1.48099 17.8686 0
0.913099 17.0719 0
2.02509 17.5961 0
5.83142 15.4811 0
5.24382 15.9968 0
-4.39691 19.3604 0
-3.70597 19.4835 0
-7.31594 18.56 0
-5.61034 17.3269 0
3.18834 16.417 0
4.28577 15.6399 0
-2.23541 21.6684 0
-2.94126 18.9014 0
3.67337 24.1605 0
3.43959 22.2367 0
-1.60463 24.7841 0
-1.33318 22.5358 0
5.84839 20.0145 0
5.48753 17.9687 0
6.98218 22.429 0
5.58887 20.5274 0
2.34098 18.6098 0
4.19688 18.7863 0
1.13704 19.5109 0
1.96977 19.3156 0
0.473751 20.9143 0
-0.412938 20.7528 0
-1.12173 19.6388 0
-1.76761 19.7659 0
-5.62258 16.7142 0
-4.00532 15.2031 0
-2.23791 21.6683 0
-3.48635 20.7784 0
3.15643 20.5704 0
4.42761 20.0328 0
-8.94584 20.9476 0
-7.16583 19.4269 0
-6.7923 19.5779 0
-4.90893 18.6637 0
-0.891569 19.1177 0
0.438351 18.8645 0
2.5906 21.8361 0
1.01171 20.5435 0
3.00526 24.3342 0
2.65846 21.8179 0
-2.1206 24.7498 0
-2.15132 21.7492 0
CELLS 176 1167
5 0 160 161 4 5
6 6 7 8 9 3 2
6 144 145 4 161 3 9
8 4 145 12 13 14 15 156 5
8 7 16 178 17 147 18 19 8
7 144 9 8 19 20 21 10
6 23 24 124 125 153 22
8 25 26 13 12 11 124 24 127
7 14 13 26 27 28 29 168
6 31 32 146 147 17 30
7 18 33 148 149 152 20 19
5 20 152 153 125 21
7 22 37 163 174 175 40 23
5 24 23 40 126 127
5 26 25 192 193 27
7 28 27 193 170 171 47 173
9 186 48 49 50 34 148 33 146 32
5 128 129 52 36 35
6 36 52 53 162 163 37
6 38 54 55 139 130 131
7 40 175 132 133 59 41 126
6 42 41 59 196 197 43
7 44 43 197 184 185 195 45
8 49 64 65 177 66 134 51 50
7 51 134 135 136 53 52 129
6 53 136 137 55 54 162
8 55 137 70 165 71 233 138 139
7 57 56 140 231 141 142 58
7 59 133 58 142 143 60 196
6 61 60 143 77 198 199
5 65 80 81 176 177
6 67 200 201 208 69 68
7 69 208 209 216 164 165 70
5 71 225 264 265 233
8 73 72 236 291 333 237 241 215
5 93 210 211 91 92
8 77 76 210 93 189 154 155 198
5 1 96 97 6 2
5 6 97 98 16 7
5 178 179 99 30 17
4 187 101 48 186
5 48 101 102 64 49
5 64 102 103 80 65
6 81 104 105 83 82 176
4 83 105 190 191
5 164 216 217 120 121
5 254 255 122 123 214
5 90 109 110 92 91
5 188 189 93 92 110
5 95 112 113 79 78
5 79 113 114 63 62
5 185 63 114 194 195
4 172 173 47 116
5 168 169 118 15 14
5 156 157 119 0 5
5 0 119 180 181 160
4 31 30 99 100
4 81 80 103 104
5 284 248 249 292 293
4 95 94 111 112
5 183 116 47 171 182
6 120 204 205 298 224 121
5 122 242 243 282 123
5 124 11 10 21 125
6 126 41 42 192 25 127
5 128 34 50 51 129
6 130 203 56 57 39 131
5 132 39 57 58 133
5 134 66 67 68 135
6 136 135 68 69 70 137
8 138 207 167 247 202 203 130 139
5 140 73 215 230 231
6 142 141 75 76 77 143
5 144 10 11 12 145
4 146 33 18 147
5 148 34 128 35 149
7 150 221 226 227 74 151 240
7 152 149 35 36 37 22 153
5 154 94 95 78 155
4 156 15 118 157
5 87 107 222 223 266
6 160 181 1 2 3 161
5 162 54 38 174 163
6 164 121 224 225 71 165
6 166 273 317 276 336 337
4 168 29 117 169
6 170 44 45 46 182 171
5 172 117 29 28 173
6 174 38 131 39 132 175
6 176 82 200 67 66 177
4 178 16 98 179
4 180 96 1 181
4 182 46 115 183
6 184 61 199 62 63 185
5 186 32 31 100 187
5 188 111 94 154 189
5 190 106 85 84 191
6 192 42 43 44 170 193
5 194 115 46 45 195
5 196 60 61 184 197
6 198 155 78 79 62 199
6 200 82 83 191 84 201
6 202 72 73 140 56 203
4 204 234 235 205
6 206 261 87 266 267 245
5 208 201 84 85 209
6 210 76 75 74 227 211
6 274 239 246 247 167 213
6 214 123 282 283 259 281
5 216 209 85 106 217
5 218 89 88 108 219
5 220 109 90 226 221
5 222 322 323 320 223
5 224 298 299 264 225
5 226 90 91 211 227
5 228 288 289 229 268
6 230 151 74 75 141 231
7 232 229 289 207 138 233 265
5 234 278 279 86 235
7 236 212 270 302 252 290 291
6 253 248 284 308 309 335
6 240 151 230 215 241 258
5 242 220 221 150 243
6 244 277 312 313 307 269
6 246 212 236 72 202 247
5 248 253 300 301 249
7 274 275 304 294 295 271 239
7 252 302 303 342 330 331 315
4 254 218 219 255
5 256 280 281 259 257
6 258 241 237 257 259 283
4 260 107 87 261
5 286 287 318 319 238
7 264 299 296 297 306 232 265
5 266 223 320 321 267
6 268 229 232 306 307 313
5 270 212 246 239 271
4 272 316 317 273
6 274 213 288 228 251 275
7 276 347 344 345 326 327 336
5 278 260 261 206 279
6 280 89 218 254 214 281
6 282 243 150 240 258 283
5 284 293 340 341 308
5 286 250 158 159 287
5 288 213 167 207 289
6 290 285 311 332 333 291
5 292 338 339 340 293
7 328 329 330 342 343 326 345
6 296 86 279 206 245 297
6 298 205 235 86 296 299
4 300 262 263 301
5 302 270 271 295 303
6 304 275 251 312 277 305
7 306 297 245 267 321 269 307
7 308 341 285 290 252 315 309
7 310 88 89 280 256 332 311
5 312 251 228 268 313
6 314 334 335 309 315 331
5 316 346 347 276 317
4 318 348 349 319
8 320 323 166 337 325 244 269 321
5 322 272 273 166 323
5 324 305 277 244 325
7 326 343 294 304 305 324 327
5 328 250 286 238 329
7 330 329 238 319 349 314 331
5 332 256 257 237 333
5 334 262 300 253 335
5 336 327 324 325 337
5 338 108 88 310 339
6 340 339 310 311 285 341
5 342 303 295 294 343
5 344 158 250 328 345
5 346 159 158 344 347
6 348 263 262 334 314 349
CELL_TYPES 176
7
7
7
7
7
7
7
7
7
7
7
7
7
7
7
7
7
7
7
7
7
7
7
7
7
7
7
7
7
7
7
7
7
7
7
7
7
7
7
7
7
7
7
7
7
7
7
7
7
7
7
7
7
7
7
7
7
7
7
7
7
7
7
7
7
7
7
7
7
7
7
7
7
7
7
7
7
7
7
7
7
7
7
7
7
7
7
7
7
7
7
7
7
7
7
7
7
7
7
7
7
7
7
7
7
7
7
7
7
7
7
7
7
7
7
7
7
7
7
7
7
7
7
7
7
7
7
7
7
7
7
7
7
7
7
7
7
7
7
7
7
7
7
7
7
7
7
7
7
7
7
7
7
7
7
7
7
7
7
7
7
7
7
7
7
7
7
7
7
7
7
7
7
7
7
7
CELL_DATA 176
SCALARS cell_division_count float
LOOKUP_TABLE default
1
0
1
0
0
0
1
0
0
1
1
1
1
1
1
1
0
1
1
1
1
1
1
0
1
1
1
1
1
1
1
1
2
4
3
1
1
0
0
1
1
0
0
0
1
2
3
0
1
0
0
1
1
1
1
1
0
0
3
0
1
2
3
1
1
1
1
1
1
1
2
2
1
1
1
1
2
1
1
1
2
1
1
2
7
1
1
1
1
1
1
1
1
1
1
1
1
1
1
1
1
1
2
3
5
2
1
3
5
2
2
2
4
3
2
4
2
3
5
5
6
3
3
6
3
4
6
8
3
5
4
4
5
5
6
6
5
4
5
8
5
5
5
7
4
4
6
4
8
5
3
4
6
6
6
6
6
6
8
5
6
6
4
6
7
7
8
6
8
7
4
7
8
8
5
6
SCALARS cell_time float
LOOKUP_TABLE default
821
2.22229e+13
841
4.48239e+13
2.67348e+11
1.25633e+10
851
2.68223e+09
9.19769e+11
841
841
831
801
851
771
811
1.22683e+06
851
821
851
851
751
791
24633.4
851
851
851
851
851
741
801
741
701
441
591
691
831
1.00108e+18
2.94533e+15
801
791
105933
2195.76
907.338
781
681
481
898.006
791
3549.01
1166.18
771
811
821
831
801
1.12104e+13
22016.3
271
2887.96
801
721
541
851
851
851
851
851
851
851
731
611
851
841
841
841
671
831
831
831
681
821
821
681
41
821
811
811
801
801
801
801
801
791
791
791
781
771
771
751
741
741
731
601
421
701
691
541
321
681
681
681
151
261
671
291
611
601
331
291
181
561
541
171
541
261
271
101
481
331
461
461
161
271
161
191
391
171
361
11
331
331
321
21
311
291
61
41
21
271
261
261
261
251
191
181
181
171
51
1
1
161
151
141
131
131
101
61
51
41
41
21
21
11
1
1
SCALARS cell_area float
LOOKUP_TABLE default
3.24528
3.30255
3.2936
3.35988
3.35326
3.34358
3.32303
3.37882
3.35093
3.28146
3.33698
3.28661
3.37389
3.31501
3.30726
3.33244
3.40306
3.28296
3.33343
3.37144
3.3802
3.33821
3.34139
3.37217
3.35336
3.36219
3.41442
3.38488
3.38091
3.32695
3.25281
3.30144
3.3391
3.30636
3.4018
3.25371
3.35106
3.25883
3.26783
3.25524
3.2467
3.28777
3.26997
3.29
3.22926
3.30361
3.2722
3.27322
3.26955
3.25875
3.27799
3.28295
3.22425
3.26451
3.25128
3.24778
3.21556
3.22445
3.27531
3.20523
3.25443
3.31717
3.2861
3.28084
3.33633
3.29196
3.3693
3.33563
3.28495
3.35086
3.40955
3.32382
3.34693
3.2872
3.24419
3.2762
3.33181
3.34539
3.23899
3.22918
3.27236
3.26204
3.31946
3.31424
3.28439
3.23008
3.30015
3.25999
3.35574
3.29021
3.23139
3.20891
3.22389
3.30625
3.26058
3.25731
3.26807
3.32534
3.27241
3.29901
3.2937
3.27224
3.36216
3.24826
3.2799
3.25612
3.32107
3.33555
3.28236
3.28516
3.27638
3.28212
3.2909
3.27598
3.25317
3.27021
3.3378
3.36761
3.27773
3.36344
3.2701
3.33042
3.29099
3.29558
3.35291
3.26354
3.33408
3.34467
3.2258
3.25369
3.30754
3.22752
3.28832
3.34087
3.26912
3.30938
3.29631
3.24757
3.30213
3.27803
3.27306
3.27233
3.30634
3.25293
3.28483
3.30447
3.32589
3.28186
3.32576
3.30029
3.29243
3.21964
3.28593
3.29234
3.33891
3.34992
3.32001
3.25383
3.29537
3.31496
3.30705
3.34655
3.28859
3.25734
3.32373
3.24344
3.29287
3.28218
3.23152
3.25338
3.2883
3.29882
3.28327
3.2438
151
0
SCALARS cell_perimeter float
LOOKUP_TABLE default
6.92113
6.89763
7.03343
7.0847
7.04847
6.86763
7.04745
7.35119
6.87964
6.98916
7.34842
6.975
6.86472
7.11395
6.97485
6.75507
7.11935
6.95572
7.01141
7.29588
6.90766
7.07617
7.10711
7.31169
7.37398
6.87765
8.16308
6.89025
6.82329
6.97675
6.96525
6.88045
8.14039
7.02203
7.03839
7.1337
7.53122
7.4334
7.70788
7.52759
8.11745
8.40353
7.94902
7.52948
7.32757
8.28592
7.21034
7.24777
7.76864
7.45242
7.79078
8.08391
7.67469
7.95955
7.60649
7.17227
7.36559
7.33616
7.14524
7.29056
7.60304
8.04392
7.51596
7.03676
6.97346
7.12836
6.9838
6.97218
7.05522
6.89983
8.22899
6.98069
7.02728
7.14381
7.26699
7.15922
7.61412
7.1072
6.94341
7.79327
7.17703
6.78081
7.02456
8.04401
6.86268
7.86697
6.80628
7.85063
6.93474
6.97004
7.69199
7.2956
7.54583
6.9927
7.80084
7.70989
7.21098
6.8491
7.96183
7.03894
7.05697
6.85481
7.21457
7.41387
6.87977
6.97239
6.80915
6.96754
6.96517
7.94001
7.40048
7.76385
7.37119
7.12414
7.15757
7.00258
6.97044
7.93815
7.29197
7.42114
7.0908
7.05074
7.88329
7.01468
7.40667
7.12018
6.98381
7.12636
7.29031
6.88634
7.12263
7.29504
7.36951
7.34449
7.07184
7.13562
6.9508
7.31759
6.79948
7.18703
7.25818
6.78154
7.28199
7.19027
7.09114
7.13351
7.34411
7.3564
6.79047
6.95076
6.94406
7.3341
6.94274
6.90906
6.94105
6.82452
7.18817
6.91057
7.22699
7.24351
7.72162
7.21503
7.35943
7.05382
6.87368
7.08956
7.27047
7.194
6.8981
7.03669
7.54151
7.29636
6.93662
7.157
74
0
SCALARS cell_frequency_modifier float
LOOKUP_TABLE default
7.29599e+16
1.65766e+13
5.48832e+12
9.16417e+12
7.63609e+11
4.42652e+10
3.93055e+07
2.81869e+09
1.36895e+12
6.5597e+11
1.46437e+09
1.24451e+09
357946
1.31064e+07
1.12138e+10
1.89662e+11
3.71578e+08
5.3644e+06
142503
1198.66
319240
5.20222e+06
1.2343e+08
3.7703e+06
88252.2
4556.49
367.542
1501.11
55700.4
178345
5.35577e+08
10940.5
460.766
109.389
11.0455
794961
22959.7
2.28887e+18
2.29134e+17
6.03057e+15
1.45947e+12
1.09718e+09
1.46273e+10
634175
5.42685e+06
126.18
629.568
16955.7
1.93566e+06
3.06598e+09
8.00896e+08
3.45045e+09
7.15744e+15
3.29568e+17
7.50906e+18
10000
7.97736e+14
1.2773e+09
7.49537
2.82152e+08
4.12912e+14
29.5979
27.4029
1.40766e+10
5.48682e+07
1.34536e+07
1021.96
15866
238709
3310.96
159.9
188.738
8051.57
2.7884e+11
2.67952e+12
5.91233e+08
142.058
7.95097e+06
7.7571e+07
4.22616e+18
46.8191
1.14669e+17
25694.8
165.739
1.59796
2.27741e+17
1.76386e+10
1.80952e+16
15776
374674
9.2324e+16
10000
5.71617e+13
1.63107e+07
1.48904e+13
1.36491e+07
473560
6.97211e+08
3.76855e+11
3.2588e+06
2.44765e+06
3.93276e+06
132.282
1487.44
5.80926
335161
2207.12
22.6504
28.1495
881.397
6.93077
580.351
0.973297
350.109
103219
4916.13
604.798
62.7258
20.7092
1.9681
100.968
69.7222
72.3174
2.83933
22.5676
121.244
2.59
0.575755
243.768
755.554
18.0231
133.039
1.72418
8.33343
136.63
9.50423
10.8415
126.37
13.4272
3.27111
29.6529
374.224
37.9008
110.286
2.51647
97.3609
1.90309
2.3916
0.517223
3.64472
13.6251
159.057
5.07185
3.85181
1.43466
0.586509
1.29411
1068.1
0.820332
0.699728
0.782994
0.466521
1.09627
196.767
0.832362
107.393
0.853393
18.4983
106.168
119.471
1.34933
1.14849
3.24132
104.464
1
1
SCALARS cell_area_modifier float
LOOKUP_TABLE default
100
0.659091
0.832536
0.332061
0.341847
0.379085
0.498567
0.3058
0.352227
2.52174
0.410377
1.2518
0.308511
0.537037
0.58194
0.441624
0.292929
1.75758
0.43609
0.314079
0.303136
0.400922
0.38326
0.31127
0.338521
0.325843
0.288079
0.297945
0.300518
0.459103
100
0.685039
0.391892
0.602076
0.295416
100
0.348697
100
100
100
100
1.16779
100
1.02959
100
0.64684
100
9.15789
100
100
3.55102
1.85106
100
100
100
100
100
100
7.25
100
100
0.528875
1.29851
2.71875
0.415274
0.920635
0.31694
0.42029
1.46218
0.355828
0.290484
0.48468
0.363257
1.20833
100
5.11765
0.447301
0.371002
100
100
43.5
100
0.520958
0.55414
1.59633
100
0.713115
100
0.33526
1
100
100
100
0.623656
100
100
100
0.478022
19.3333
0.728033
0.813084
100
0.328922
100
2.94915
100
0.505814
0.425428
1.95506
1.40323
4.46154
2.20253
0.972067
6
100
100
0.405594
0.319853
3.95455
0.32282
100
0.453125
0.945652
0.776786
0.345238
100
0.430693
0.375
100
100
0.572368
100
1.09434
0.387528
100
0.563107
0.759825
100
0.671815
3.22222
12.4286
100
0.612676
100
1.52632
0.635036
0.465241
2.35135
0.471545
0.698795
0.874372
100
1.34884
0.896907
0.396355
0.359504
0.513274
100
0.794521
0.545455
0.591837
0.367089
1.06098
100
0.491525
100
0.852941
2.07143
100
100
1.12987
0.74359
1.67308
100
1
1
SCALARS cell_Gaussian_modifier float
LOOKUP_TABLE default
7.29599e+14
2.51507e+13
6.59229e+12
2.75978e+13
2.23377e+12
1.16769e+11
7.8837e+07
9.21745e+09
3.88657e+12
2.60126e+11
3.56834e+09
9.94176e+08
1.16024e+06
2.44051e+07
1.92696e+10
4.29465e+11
1.26849e+09
3.05216e+06
326773
3816.43
1.05312e+06
1.29756e+07
3.22054e+08
1.21126e+07
260699
13983.7
1275.84
5038.21
185348
388464
5.35577e+06
15970.6
1175.75
181.687
37.3897
7949.61
65844.3
2.28887e+16
2.29134e+15
6.03057e+13
1.45947e+10
9.39543e+08
1.46273e+08
615952
54268.5
195.071
6.29568
1851.49
19356.6
3.06598e+07
2.2554e+08
1.86404e+09
7.15744e+13
3.29568e+15
7.50906e+16
100
7.97736e+12
1.2773e+07
1.03384
2.82152e+06
4.12912e+12
55.9638
21.1034
5.17761e+09
1.32125e+08
1.46134e+07
3224.46
37750
163255
9304.95
550.46
389.408
22165
2.30764e+11
2.67952e+10
1.15528e+08
317.589
2.14311e+07
775710
4.22616e+16
1.0763
1.14669e+15
49322.2
299.092
1.00102
2.27741e+15
2.47346e+10
1.80952e+14
47056.1
374674
9.2324e+14
100
5.71617e+11
2.61534e+07
1.48904e+11
136491
4735.6
1.45853e+09
1.94925e+10
4.47617e+06
3.01033e+06
39327.6
402.168
14.8744
1.96981
3351.61
4363.51
53.2415
14.3983
628.122
1.55345
263.493
1.00127
58.3515
1032.19
49.1613
1491.14
196.108
5.23681
6.09658
1.00968
153.87
76.4736
3.65524
65.3682
1.21244
6.01357
1.53535
2.43768
7.55554
31.4887
1.33039
1.57554
21.5041
1.3663
16.8782
14.2684
1.2637
19.9864
1.01517
2.38587
3.74224
61.8611
1.10286
1.64872
153.316
4.09054
1.01712
1.09687
5.21573
15.5828
1.59057
3.76017
4.29455
3.61962
1.63144
2.52128
10.681
1.03249
1.28284
1.32299
1.27087
1.03326
1.96767
1.69343
1.07393
1.00053
8.93022
1.06168
1.19471
1.19424
1.54453
1.93734
1.04464
1
1
