# vtk DataFile Version 2.0
2D-vertex
ASCII
DATASET UNSTRUCTURED_GRID
POINTS 476 float
0.0288572 -2.47026 0
2.50326 -2.38472 0
2.9382 -1.46355 0
1.97388 -0.348451 0
-0.31016 -0.0851971 0
-1.10046 -1.52617 0
3.48106 -1.45716 0
4.09809 -0.634584 0
3.25862 0.909173 0
2.17251 0.64623 0
1.05735 1.93671 0
-0.632136 2.51475 0
-1.46005 1.28653 0
-1.64311 1.25051 0
-2.22547 -0.357489 0
-1.75796 -1.26268 0
4.66942 -0.823913 0
5.54352 0.0143649 0
3.8047 1.61503 0
3.50029 1.5577 0
2.69197 2.54852 0
1.58495 2.52113 0
1.13831 6.03733 0
0.158226 6.04758 0
-0.688383 4.26655 0
-1.99283 3.47768 0
-1.99517 1.62597 0
-3.31997 1.38754 0
-3.86023 0.406288 0
-3.58757 -0.314782 0
6.62047 -0.0328236 0
7.29334 0.670269 0
7.18097 1.98761 0
5.03835 3.22906 0
5.55185 3.78912 0
3.25988 5.17612 0
2.60025 6.41268 0
1.62825 6.62239 0
0.719182 9.57355 0
-0.971643 9.65368 0
-0.684681 6.88975 0
-2.34229 6.05842 0
-3.38971 4.64484 0
-4.406 4.72013 0
-5.15854 3.40719 0
-6.59428 3.15116 0
-6.90846 2.12215 0
-5.41819 0.704903 0
7.66072 2.61152 0
7.3821 3.64158 0
6.6781 4.07581 0
6.08808 6.12889 0
3.76782 7.37893 0
3.72893 8.13662 0
2.28843 9.66286 0
2.86008 10.3737 0
-2.00271 10.9425 0
-1.96382 10.2444 0
-3.17333 9.08039 0
-2.89976 7.05563 0
-4.62175 7.47873 0
-5.99784 6.26828 0
-7.96832 4.91548 0
-7.83932 4.3602 0
8.35507 4.0197 0
8.35532 4.02219 0
7.04723 6.07876 0
7.52799 7.28816 0
6.39136 8.53175 0
6.64236 9.21931 0
6.01738 10.1636 0
5.88923 10.4942 0
-2.77785 13.2067 0
-2.96646 13.0228 0
-6.42219 10.7282 0
-5.73981 9.80666 0
-6.45849 8.60911 0
-6.34872 8.3671 0
-8.94644 5.48597 0
-8.79586 5.09868 0
9.90189 4.24905 0
10.2816 5.21138 0
9.57172 6.25046 0
10.7485 6.60372 0
10.5766 8.15846 0
10.8386 8.92246 0
10.2762 13.7997 0
11.0257 16.2847 0
-9.78516 16.5953 0
-9.74937 16.3335 0
-10.3941 10.2343 0
-10.072 9.6258 0
-10.4117 9.03182 0
-9.66295 7.86781 0
-10.4366 6.63972 0
-9.98975 5.62201 0
3.33561 -4.27299 0
4.5661 -3.77565 0
5.42482 -3.40446 0
7.85739 -1.90791 0
9.21913 -0.524313 0
10.6638 1.74466 0
10.7677 1.91245 0
11.5374 2.96753 0
12.4272 4.86482 0
12.6828 5.65045 0
13.0628 9.20427 0
13.344 16.8859 0
-12.7955 17.4188 0
-12.8422 10.2669 0
-12.7838 8.92391 0
-12.4392 6.32855 0
-11.6006 4.36299 0
-10.7617 3.23768 0
-10.1606 2.48496 0
-9.25952 1.11533 0
-7.36816 -1.06758 0
-5.32546 -2.5216 0
-3.25529 -3.57573 0
-0.282098 -4.49539 0
12.9569 11.0862 0
9.28349 10.9982 0
-12.9969 13.1462 0
-10.3692 13.5979 0
-0.468373 3.95417 0
0.902345 4.01147 0
-1.9639 5.99396 0
-1.32009 4.28014 0
4.58862 5.32565 0
5.02536 6.23946 0
0.414103 11.0181 0
0.197853 10.0876 0
-1.22166 8.16174 0
-2.513 7.90385 0
6.0874 6.13129 0
5.3837 8.06314 0
4.42123 8.58356 0
4.43474 9.77597 0
2.47357 11.2069 0
2.47146 11.2055 0
-2.70229 11.322 0
-4.24505 9.90643 0
-3.81073 9.14138 0
-4.72601 8.05858 0
1.14428 1.32302 0
-0.355699 0.37229 0
6.36793 2.2582 0
5.20757 0.737039 0
5.03633 3.23054 0
3.03457 4.08651 0
-9.27856 11.7499 0
-6.21334 11.3286 0
3.03207 4.0864 0
1.57697 4.81155 0
-9.62423 7.78899 0
-8.20402 7.12246 0
-1.13815 -1.54351 0
-1.64922 -4.2037 0
3.58021 30.2826 0
4.05571 32.002 0
0.860621 -2.15674 0
1.02626 -0.722 0
2.64771 8.56616 0
1.42304 7.52148 0
9.09854 10.4897 0
6.03303 10.1901 0
9.04512 22.3092 0
0.440002 12.6791 0
-3.02836 -0.593338 0
-3.81904 -3.31654 0
-4.61416 2.45646 0
-5.524 1.32873 0
-5.96352 -2.12239 0
-4.83027 0.28625 0
0.428697 8.055 0
-0.583149 7.61655 0
9.52319 6.06992 0
7.86972 5.34706 0
5.33403 -0.507347 0
6.95119 -2.56593 0
1.27285 -4.62546 0
1.38797 -2.61014 0
-6.482 1.47774 0
-8.10998 -0.352013 0
-5.64356 5.16017 0
-6.9686 3.99976 0
7.46764 2.11612 0
9.83403 0.331759 0
-12.6678 7.70645 0
-9.66437 7.86573 0
13.0871 7.68726 0
11.0187 7.63633 0
-3.00264 3.70726 0
-3.932 2.42082 0
-9.73458 1.88351 0
-6.9703 3.44968 0
-3.77447 6.89684 0
-4.57138 5.0372 0
-7.07677 7.25859 0
-6.66059 6.39139 0
8.55558 7.43092 0
8.8187 7.98204 0
-0.791044 12.5673 0
-0.687228 11.7812 0
12.9601 11.0958 0
10.5554 12.3233 0
10.375 14.8691 0
2.32266 11.5021 0
8.29561 9.13956 0
9.66983 9.95346 0
-7.64426 8.7735 0
-7.98045 9.61142 0
-2.25243 14.7907 0
1.10067 13.8551 0
-10.2134 14.1915 0
-4.33125 13.0258 0
9.66903 9.95584 0
12.9754 10.3829 0
-10.7956 15.6538 0
-13.0156 16.3258 0
-12.8553 11.3892 0
-9.52824 11.3733 0
12.518 19.7185 0
10.2999 18.1036 0
8.93443 11.4556 0
6.85351 11.5588 0
-9.52806 11.3708 0
-7.63912 10.4848 0
2.76417 14.4156 0
4.61481 12.9913 0
-4.7403 11.6597 0
-3.90783 10.8083 0
5.41586 12.8055 0
4.51225 11.2819 0
13.2919 12.9275 0
10.7907 12.9868 0
-2.90908 14.4455 0
-4.85843 14.0289 0
-4.55126 28.8026 0
0.234634 15.2594 0
-6.86276 12.0303 0
-4.80009 13.4042 0
-12.8946 12.177 0
-9.76801 12.4914 0
6.73426 16.8225 0
8.68521 15.4396 0
-0.872695 14.1004 0
-0.552381 12.7971 0
-9.95087 20.2666 0
-12.3518 20.6113 0
2.43722 29.9727 0
2.68049 15.348 0
-3.06591 16.8347 0
-9.62388 20.7235 0
-10.8588 14.7537 0
-13.1239 14.3611 0
-6.84764 15.7711 0
-6.43636 14.4851 0
-6.7161 12.6005 0
-7.58068 13.7323 0
13.4464 15.0018 0
11.0389 15.4473 0
-9.57055 22.5165 0
-11.3424 23.9153 0
6.58915 12.5601 0
5.41767 12.8038 0
10.3686 16.8489 0
8.68028 16.2647 0
4.41028 13.9418 0
7.1502 16.506 0
-2.01079 15.892 0
-0.285464 16.1657 0
10.5183 26.6175 0
8.97399 25.4896 0
0.603385 15.1891 0
1.67556 15.9833 0
7.1352 27.0298 0
4.51473 16.1107 0
13.366 13.9648 0
10.5838 14.2498 0
-8.60794 15.5984 0
-8.79374 14.6632 0
-9.64853 12.7936 0
-7.62534 13.366 0
-9.68131 19.6161 0
-6.40877 17.2725 0
0.80063 30.4234 0
0.419119 32.4187 0
2.12699 13.7342 0
2.88722 12.3128 0
-3.98783 16.1294 0
-4.07036 15.2524 0
-12.534 19.3437 0
-10.1276 19.0399 0
0.131951 17.4548 0
-0.0645467 17.3426 0
8.27006 13.7366 0
7.81857 14.5174 0
9.20085 12.0868 0
8.11062 13.3361 0
-10.0624 21.6083 0
-12.0839 21.9833 0
-2.51853 16.7411 0
-1.49297 17.944 0
1.9039 16.9163 0
3.88541 17.0391 0
6.84165 14.5708 0
6.61166 14.9742 0
-7.37302 19.014 0
-7.09522 19.2766 0
-9.3302 17.0281 0
-6.6971 16.7084 0
4.46294 15.9756 0
5.17212 14.9495 0
-8.24976 24.4437 0
-3.66424 18.3093 0
9.58082 27.9459 0
8.11968 26.7239 0
-6.0133 30.4741 0
-5.05528 28.7983 0
9.04751 18.3522 0
8.09272 16.798 0
11.9128 22.0317 0
9.65086 21.6168 0
4.67659 18.3216 0
6.49779 19.4621 0
1.59316 19.1855 0
3.95255 18.6843 0
0.151469 25.6445 0
-2.39579 24.1316 0
-2.52152 22.3931 0
-4.07594 20.2351 0
-6.47153 16.2452 0
-4.25765 15.1845 0
-8.57169 22.5249 0
-7.6808 20.6345 0
6.71385 24.8333 0
7.35425 21.6293 0
-12.6769 18.1632 0
-9.62928 17.8058 0
-9.58155 17.8736 0
-7.36353 18.2324 0
0.116039 19.409 0
0.383742 19.0683 0
4.36855 29.5291 0
2.18489 22.5614 0
5.67921 31.422 0
5.04517 29.7429 0
-9.44004 27.5103 0
-7.96128 26.1003 0
-5.46706 17.4088 0
-5.09229 18.2946 0
8.77253 18.9703 0
7.53453 18.5593 0
1.79817 17.0634 0
2.30412 18.1305 0
10.6131 17.5093 0
13.1199 17.9803 0
12.2766 20.3106 0
8.9997 18.823 0
-6.94474 26.2756 0
-3.96352 20.5687 0
-1.83004 18.9079 0
-3.23259 19.0125 0
3.30815 22.9862 0
4.18066 22.3669 0
-5.6272 19.1269 0
-5.19842 20.0512 0
4.72036 18.0392 0
6.71334 17.3585 0
-1.25969 21.9838 0
0.356229 23.5633 0
1.15328 28.2794 0
4.09778 28.319 0
-2.11447 30.0814 0
-2.55922 31.9093 0
-1.13311 29.7525 0
-1.06142 25.6765 0
-10.5356 25.7739 0
-8.52762 25.1134 0
-1.44923 19.4088 0
-3.15963 20.8379 0
-6.24142 22.4321 0
-5.21571 22.2915 0
6.23366 28.0658 0
5.0369 27.4932 0
5.22775 21.0566 0
6.67441 21.9768 0
8.37634 25.6493 0
7.36502 24.6489 0
11.3676 24.6262 0
9.47075 24.2925 0
-5.81371 27.5801 0
-3.0642 22.1013 0
7.55068 30.183 0
6.20705 28.936 0
2.59064 20.3073 0
3.94751 19.6649 0
-8.604 28.4549 0
-6.81636 26.9899 0
0.317988 25.8583 0
3.51866 24.1669 0
0.637456 20.736 0
1.96432 21.1366 0
-7.58183 20.8107 0
-6.19073 21.0834 0
9.09925 20.2731 0
7.48588 20.445 0
-0.922206 21.2206 0
-1.74849 20.2121 0
12.1391 20.8319 0
9.10107 20.2714 0
-1.52068 24.3955 0
-0.535185 23.3032 0
-4.87158 22.9175 0
-4.13447 23.0194 0
-3.18655 24.8071 0
-3.76087 24.6005 0
-11.067 24.5056 0
-8.76101 23.8167 0
4.57968 24.535 0
5.48951 23.9105 0
0.701973 28.4402 0
0.348032 29.9197 0
-6.84499 24.2254 0
-6.18216 25.0637 0
-0.632839 30.1987 0
-1.02843 32.2228 0
-3.62221 27.6389 0
-1.55692 27.4982 0
8.93515 23.3817 0
7.69251 23.5181 0
8.62322 29.083 0
7.00655 27.7072 0
5.50405 23.1132 0
6.62356 22.5657 0
2.56319 20.7472 0
4.1599 21.6693 0
2.86328 24.8164 0
2.85361 26.7296 0
5.23961 20.4563 0
6.50237 19.7516 0
1.42432 23.2586 0
1.86084 24.6261 0
11.6732 23.2685 0
9.26467 22.8802 0
-0.8683 27.9221 0
-0.207329 27.6539 0
-3.79096 29.9455 0
-4.34736 31.3248 0
0.224915 21.245 0
0.855128 23.1001 0
-5.84474 25.0004 0
-5.13636 25.5653 0
-8.3577 22.8399 0
-6.24292 22.4301 0
5.02018 26.1195 0
6.30225 26.1278 0
-7.22081 29.6744 0
-6.05753 27.6088 0
-5.02109 26.4795 0
-3.82329 26.822 0
2.23822 28.9515 0
3.28957 28.0704 0
-2.59478 29.653 0
-2.47889 28.0899 0
4.76057 26.4268 0
3.31618 26.1531 0
1.67425 26.6889 0
1.09678 25.7867 0
-2.94363 26.0009 0
-1.70675 26.3869 0
2.03307 30.4184 0
2.48629 32.3539 0
0.294598 24.1897 0
1.60639 25.0126 0
CELLS 239 1593
5 0 160 161 4 5
6 9 3 2 6 7 8
6 161 3 9 144 145 4
8 5 4 145 12 13 14 15 156
8 7 16 178 17 147 18 19 8
7 144 9 8 19 20 21 10
6 125 153 22 23 24 124
8 25 26 13 12 11 124 24 127
7 14 13 26 27 28 29 168
6 147 17 30 31 32 146
7 18 33 148 149 152 20 19
5 20 152 153 125 21
7 22 37 163 174 175 40 23
5 24 23 40 126 127
5 26 25 192 193 27
7 28 27 193 170 171 47 173
9 186 48 49 50 34 148 33 146 32
5 36 35 128 129 52
6 36 52 53 162 163 37
6 38 54 55 139 130 131
7 40 175 132 133 59 41 126
6 42 41 59 196 197 43
7 44 43 197 184 185 195 45
8 49 64 65 177 66 134 51 50
7 51 134 135 136 53 52 129
6 53 136 137 55 54 162
8 55 137 70 165 71 233 138 139
7 57 56 140 231 141 142 58
7 59 133 58 142 143 60 196
6 61 60 143 77 198 199
5 65 80 81 176 177
6 67 200 201 208 69 68
7 69 208 209 216 164 165 70
5 71 225 264 265 233
8 73 72 236 291 333 237 241 215
5 91 92 93 210 211
8 77 76 210 93 189 154 155 198
5 6 2 1 96 97
5 16 7 6 97 98
5 30 17 178 179 99
4 186 187 101 48
5 64 49 48 101 102
5 80 65 64 102 103
6 83 82 176 81 104 105
4 191 83 105 190
5 120 121 164 216 217
5 123 214 254 255 122
5 92 91 90 109 110
5 92 110 188 189 93
5 79 78 95 112 113
5 63 62 79 113 114
5 194 195 185 63 114
4 116 172 173 47
5 15 14 168 169 118
5 0 5 156 157 119
5 181 160 0 119 180
4 100 31 30 99
4 104 81 80 103
5 292 293 284 248 249
4 112 95 94 111
5 171 182 183 116 47
6 120 204 205 298 224 121
5 122 242 243 282 123
5 124 11 10 21 125
6 126 41 42 192 25 127
5 128 34 50 51 129
6 130 203 56 57 39 131
5 132 39 57 58 133
5 134 66 67 68 135
6 136 135 68 69 70 137
8 138 207 167 247 202 203 130 139
5 140 73 215 230 231
6 142 141 75 76 77 143
5 144 10 11 12 145
4 146 33 18 147
5 148 34 128 35 149
7 150 221 226 227 74 151 240
7 152 149 35 36 37 22 153
5 154 94 95 78 155
4 156 15 118 157
4 223 356 357 222
6 160 181 1 2 3 161
5 162 54 38 174 163
6 164 121 224 225 71 165
7 166 445 430 431 435 387 337
4 168 29 117 169
6 170 44 45 46 182 171
5 172 117 29 28 173
6 174 38 131 39 132 175
6 176 82 200 67 66 177
4 178 16 98 179
4 180 96 1 181
4 182 46 115 183
6 184 61 199 62 63 185
5 186 32 31 100 187
5 188 111 94 154 189
5 190 106 85 84 191
6 192 42 43 44 170 193
5 194 115 46 45 195
5 196 60 61 184 197
6 198 155 78 79 62 199
6 200 82 83 191 84 201
6 202 72 73 140 56 203
4 204 234 235 205
6 206 261 87 266 267 245
5 208 201 84 85 209
6 210 76 75 74 227 211
6 247 167 213 274 239 246
6 214 123 282 283 259 281
5 216 209 85 106 217
5 218 89 88 108 219
5 220 109 90 226 221
5 222 358 359 320 223
5 224 298 299 264 225
5 226 90 91 211 227
5 228 288 289 229 268
6 230 151 74 75 141 231
7 232 229 289 207 138 233 265
5 234 278 279 86 235
7 236 212 270 302 252 290 291
6 253 248 284 308 309 335
6 240 151 230 215 241 258
5 242 220 221 150 243
6 244 277 312 313 307 269
6 246 212 236 72 202 247
5 248 253 300 301 249
8 239 274 275 304 354 294 295 271
6 252 302 303 362 363 315
4 254 218 219 255
5 256 280 281 259 257
6 258 241 237 257 259 283
4 260 107 87 261
5 319 238 448 449 318
7 264 299 296 297 306 232 265
6 266 356 223 320 321 267
6 268 229 232 306 307 313
5 270 212 246 239 271
5 272 316 317 388 273
6 274 213 288 228 251 275
7 276 433 384 385 466 456 457
5 278 260 261 206 279
6 280 89 218 254 214 281
6 282 243 150 240 258 283
5 284 293 340 341 308
4 286 472 473 287
5 288 213 167 207 289
7 290 350 285 311 332 333 291
5 292 338 339 340 293
6 328 377 412 413 371 474
6 296 86 279 206 245 297
6 298 205 235 86 296 299
4 300 262 263 301
5 302 270 271 295 303
6 304 275 251 312 277 305
7 306 297 245 267 321 269 307
7 308 341 285 350 351 366 309
7 310 88 89 280 256 332 311
5 312 251 228 268 313
6 314 419 454 455 382 424
5 316 432 433 276 317
5 318 458 459 392 319
8 320 359 352 353 369 244 269 321
5 322 444 445 166 323
5 324 368 369 353 325
5 326 343 294 354 355
6 447 422 423 426 376 446
6 330 329 416 417 415 393
5 332 256 257 237 333
6 334 262 300 253 335 404
6 336 421 434 435 431 389
5 338 108 88 310 339
6 340 339 310 311 285 341
7 303 295 294 343 342 380 362
6 344 158 250 462 463 373
5 346 159 158 344 347
4 348 378 379 349
5 350 290 252 315 351
7 352 411 406 407 441 325 353
7 354 304 305 368 324 327 355
5 356 266 87 107 357
5 358 410 411 352 359
6 360 349 379 314 424 425
7 362 380 409 381 361 331 363
6 364 345 403 436 437 365
6 366 351 315 363 331 367
5 368 305 277 244 369
6 370 408 450 451 371 413
7 438 467 439 468 469 475 443
5 374 376 426 427 375
6 376 374 464 465 429 446
5 378 418 419 314 379
6 380 342 402 450 408 409
7 382 455 405 367 331 361 383
6 384 395 347 344 373 385
6 386 440 441 407 337 387
6 388 317 276 457 336 389
4 390 272 273 391
8 392 459 399 360 425 452 453 460
4 394 346 347 395
5 396 326 355 327 397
5 398 348 349 360 399
5 400 328 474 475 469
7 402 342 343 326 396 436 403
6 404 335 309 366 367 405
5 406 323 166 337 407
6 408 370 330 393 381 409
5 410 322 323 406 411
5 412 329 330 370 413
6 414 383 361 381 393 415
6 461 428 238 319 392 460
6 418 263 262 334 454 419
6 420 401 364 365 434 421
7 422 372 462 250 472 286 423
6 424 382 383 414 452 425
5 426 423 286 287 427
6 428 461 470 471 429 465
6 430 391 273 388 389 431
5 432 394 395 384 433
6 434 365 437 386 387 435
6 436 396 397 440 386 437
6 438 401 420 456 466 467
6 440 397 327 324 325 441
6 442 345 364 401 438 443
5 444 390 391 430 445
7 446 429 471 377 328 400 447
5 464 374 375 449 448
6 450 402 403 345 442 451
5 452 414 415 417 453
5 454 334 404 405 455
5 456 420 421 336 457
4 458 398 399 459
6 460 453 417 416 470 461
5 462 372 468 439 463
5 464 448 238 428 465
6 466 385 373 463 439 467
6 468 372 422 447 400 469
6 470 416 329 412 377 471
5 472 250 158 159 473
6 474 371 451 442 443 475
CELL_TYPES 239
7
7
7
7
7
7
7
7
7
7
7
7
7
7
7
7
7
7
7
7
7
7
7
7
7
7
7
7
7
7
7
7
7
7
7
7
7
7
7
7
7
7
7
7
7
7
7
7
7
7
7
7
7
7
7
7
7
7
7
7
7
7
7
7
7
7
7
7
7
7
7
7
7
7
7
7
7
7
7
7
7
7
7
7
7
7
7
7
7
7
7
7
7
7
7
7
7
7
7
7
7
7
7
7
7
7
7
7
7
7
7
7
7
7
7
7
7
7
7
7
7
7
7
7
7
7
7
7
7
7
7
7
7
7
7
7
7
7
7
7
7
7
7
7
7
7
7
7
7
7
7
7
7
7
7
7
7
7
7
7
7
7
7
7
7
7
7
7
7
7
7
7
7
7
7
7
7
7
7
7
7
7
7
7
7
7
7
7
7
7
7
7
7
7
7
7
7
7
7
7
7
7
7
7
7
7
7
7
7
7
7
7
7
7
7
7
7
7
7
7
7
7
7
7
7
7
7
7
7
7
7
7
7
7
7
7
7
7
7
CELL_DATA 239
SCALARS cell_division_count float
LOOKUP_TABLE default
1
0
1
0
0
0
1
0
0
1
1
1
1
1
1
1
0
1
1
1
1
1
1
0
1
1
1
1
1
1
1
1
2
4
3
1
1
0
0
1
1
0
0
0
1
2
3
0
1
0
0
1
1
1
1
1
0
0
3
0
1
2
3
1
1
1
1
1
1
1
2
2
1
1
1
1
2
1
1
1
3
1
1
2
9
1
1
1
1
1
1
1
1
1
1
1
1
1
1
1
1
1
2
3
5
2
1
3
5
2
2
2
5
3
2
4
2
3
5
5
6
3
3
6
3
4
6
9
3
5
4
4
7
5
6
6
5
4
5
12
5
5
5
7
5
4
6
4
10
5
3
4
6
6
6
7
6
6
11
7
8
7
6
7
8
10
11
6
8
9
4
7
8
10
5
7
7
8
8
3
6
11
10
11
9
7
11
12
7
10
8
11
10
10
9
8
5
12
6
10
7
12
10
10
8
11
6
10
11
12
8
11
9
11
7
10
9
7
9
11
12
9
11
6
10
7
11
12
11
12
8
12
10
10
12
12
10
5
12
SCALARS cell_time float
LOOKUP_TABLE default
1381
2.22229e+13
1401
4.48239e+13
2.67348e+11
1.25633e+10
1411
2.68224e+09
9.19769e+11
1401
1401
1391
1361
1411
1331
1371
1.22739e+06
1411
1381
1411
1411
1311
1351
25193.4
1411
1411
1411
1411
1411
1301
1361
1301
1261
1001
1151
1251
1391
1.00108e+18
2.94533e+15
1361
1351
106493
2755.76
1467.34
1341
1241
1041
1458.01
1351
4109.01
1726.18
1331
1371
1381
1391
1361
1.12104e+13
22576.3
831
3447.96
1361
1281
1101
1411
1411
1411
1411
1411
1411
1411
1291
1171
1411
1401
1401
1401
1231
1391
1391
1391
531
1381
1381
1241
161
1381
1371
1371
1361
1361
1361
1361
1361
1351
1351
1351
1341
1331
1331
1311
1301
1301
1291
1161
981
1261
1251
1101
881
1241
1241
1241
531
821
1231
851
1171
1161
891
851
741
1121
1101
731
1101
821
831
521
1041
891
1021
1021
111
831
721
751
951
731
921
81
891
891
881
581
11
851
621
601
251
831
821
821
821
811
751
551
741
731
91
161
81
541
131
471
541
121
221
621
611
161
601
581
581
71
561
411
551
271
541
531
261
201
401
161
481
471
101
51
201
71
221
271
391
371
161
361
361
101
341
341
331
1
311
281
271
271
261
251
231
81
221
211
211
201
201
21
161
161
161
161
61
161
151
131
121
111
101
101
91
81
81
81
71
71
61
51
21
11
1
SCALARS cell_area float
LOOKUP_TABLE default
3.24322
3.30127
3.29434
3.35771
3.35244
3.34479
3.32785
3.37749
3.35017
3.28237
3.33806
3.28586
3.38459
3.32022
3.30777
3.33152
3.40095
3.28948
3.3448
3.39083
3.39067
3.3417
3.34137
3.37416
3.36057
3.37532
3.43178
3.40158
3.39119
3.33107
3.24978
3.30073
3.34442
3.32329
3.43892
3.25354
3.34909
3.2541
3.26273
3.25024
3.23957
3.28102
3.2643
3.28235
3.22366
3.29262
3.2654
3.2673
3.2625
3.25159
3.27106
3.2763
3.21854
3.25893
3.24627
3.24352
3.21129
3.21989
3.27875
3.19961
3.24836
3.30938
3.27773
3.2823
3.3393
3.28925
3.39217
3.35026
3.28446
3.35986
3.44043
3.34834
3.35692
3.28815
3.24824
3.27749
3.34102
3.35156
3.23498
3.22378
3.23231
3.25986
3.33322
3.32571
3.3296
3.22451
3.29859
3.25421
3.36943
3.29025
3.2262
3.20507
3.2183
3.3062
3.25386
3.24912
3.26245
3.3261
3.26579
3.3023
3.29267
3.26767
3.39165
3.24263
3.29919
3.24747
3.32955
3.377
3.29151
3.28206
3.26953
3.27626
3.28617
3.28883
3.25134
3.30386
3.35443
3.39446
3.26778
3.41416
3.28951
3.34951
3.28066
3.32959
3.39271
3.2732
3.42054
3.36946
3.22422
3.27543
3.32933
3.21978
3.28093
3.36489
3.31936
3.33798
3.34766
3.27876
3.35174
3.31754
3.26283
3.28412
3.31567
3.26719
3.24379
3.33883
3.38139
3.28009
3.26717
3.31555
3.30154
3.2404
3.34704
3.33842
3.37594
3.3695
3.33717
3.29175
3.29127
3.29013
3.28126
3.39557
3.29368
3.29804
3.33507
3.30147
3.28909
3.31775
3.28098
3.29584
3.28315
3.31897
3.39636
3.28051
3.27382
3.23414
3.33968
3.35412
3.357
3.25403
3.30017
3.29389
3.39073
3.32369
3.35979
3.29638
3.31383
3.2995
3.29259
3.28836
3.28263
3.35876
3.35653
3.27875
3.31956
3.2873
3.23479
3.3561
3.23054
3.30336
3.27348
3.33477
3.37137
3.32592
3.28173
3.32917
3.29525
3.25808
3.3283
3.29188
3.30756
3.30094
3.31513
3.30117
3.28679
3.29006
3.28625
3.28238
3.31274
3.31971
3.29094
3.3177
3.31551
3.28389
3.3305
3.28475
3.33329
3.26959
3.26991
3.2587
3.24696
3.2946
3.25746
3.24789
3.286
3.30326
3.2882
3.27834
92
SCALARS cell_perimeter float
LOOKUP_TABLE default
6.92897
6.93446
6.97992
7.17442
7.11124
6.83379
7.05458
7.54398
6.92359
6.94033
7.37711
6.99395
6.82204
7.18782
7.02133
6.78511
7.16806
6.96398
6.96393
7.15542
6.9105
7.19068
7.20004
7.48534
7.50086
6.93046
8.22789
6.96701
6.84553
7.03583
6.95886
6.99029
8.27944
7.02582
7.01962
7.27522
7.79503
7.51219
7.81434
7.62422
8.25964
8.63725
8.15268
7.71724
7.3694
9.03427
7.65637
7.53998
7.99174
7.6228
8.07199
8.39076
7.77543
8.06713
7.66904
7.21221
7.42701
7.38134
7.56466
7.31963
7.71726
9.01993
8.18811
7.03284
7.071
7.19309
6.95656
7.01216
7.11481
6.89171
8.08367
7.01316
7.1098
7.09622
7.246
7.2005
7.80559
7.20181
6.93693
7.86918
7.80553
6.78908
7.01007
8.05286
7.07061
7.97269
6.82111
7.97189
6.98076
6.98886
7.78434
7.31268
7.64347
7.08316
7.92025
7.92505
7.32001
6.9124
8.19392
7.12632
7.12939
6.91521
7.22072
7.76717
6.97903
7.00034
6.82203
7.09232
7.1902
8.31861
8.06725
8.32913
8.73182
7.17024
7.23301
7.08609
6.94386
7.81128
7.84585
6.86972
7.45768
7.16093
8.59861
7.30891
7.29096
7.42876
7.03161
6.98019
7.48835
6.97118
7.27511
7.56771
7.165
7.48755
7.05692
7.23115
7.06509
7.16644
6.84933
6.88205
7.81913
6.81302
7.52543
7.43069
7.31995
7.20246
7.59096
8.05398
7.0652
7.15675
7.13749
7.41568
7.06424
7.29076
6.9373
6.89616
7.79142
7.04932
7.33614
7.23461
7.42984
7.37292
7.53063
7.37005
7.01294
6.97636
7.04426
7.35517
7.14595
6.8626
8.40426
7.80278
7.05819
6.77249
7.10287
7.34811
7.09778
7.13908
7.48479
7.63306
8.83985
6.81665
7.12154
6.96875
6.88423
7.3978
7.05571
6.81157
7.21144
6.99972
7.42972
6.95452
7.43671
6.81199
6.91953
6.82112
7.29925
6.90933
7.28701
6.99413
7.37327
7.24099
7.11633
7.02478
7.00899
6.89164
8.06495
6.96002
7.11321
6.87149
7.752
6.81264
6.82833
7.35277
7.25143
6.78621
6.82125
7.21482
7.00019
7.13261
6.9741
7.19014
6.81045
7.41399
6.95812
7.12481
7.06484
7.25395
7.27979
6.92172
7.50521
6.87926
6.91157
6.88967
6.81694
7.07894
6.78862
7.16621
40
SCALARS cell_frequency_modifier float
LOOKUP_TABLE default
2.15673e+17
1.61037e+14
5.30469e+13
5.01432e+13
1.36585e+13
8.88446e+11
1.65606e+09
5.54274e+10
1.05647e+13
4.02372e+13
6.58498e+10
8.79014e+10
2.17591e+07
5.35652e+08
2.24508e+11
2.21178e+12
3.65494e+10
4.66655e+08
1.25714e+07
105660
1.73762e+07
2.56173e+08
5.34553e+09
9.01334e+08
1.498e+07
609368
66808
117639
4.11059e+06
1.87325e+07
2.46047e+11
6.57865e+06
271460
26389.5
880.828
2.50975e+08
5.14581e+06
5.02399e+18
9.93081e+17
8.43732e+16
1.85355e+14
1.59571e+12
5.0056e+12
2.53175e+09
7.73873e+09
257997
283148
9.50396e+07
7.64942e+08
3.72185e+11
1.56332e+12
7.47688e+12
2.91753e+16
6.11039e+17
7.85037e+18
10000
2.3043e+16
8.63978e+11
1523.87
6.02892e+10
3.14696e+15
43773
1.13949e+06
6.14699e+11
1.8562e+09
2.98696e+09
67282.7
934714
1.20042e+08
785139
11731.4
13931.1
915489
5.4805e+12
1.06404e+14
8.66672e+11
36760.4
5.02333e+08
1.45602e+10
4.72499e+18
4376.09
3.69128e+17
1.93948e+06
85211.3
1.58476
4.40045e+17
4.45199e+11
5.95875e+16
1.04618e+06
2.40952e+08
6.17431e+17
10000
7.0111e+14
1.20213e+09
1.0315e+15
4.09588e+09
7.14147e+08
2.0913e+10
4.71242e+13
2.10937e+08
3.7746e+08
3.59022e+09
8587.78
2.16109e+06
349.536
3.17708e+08
446743
958.055
4858.21
4.75527e+06
21907.1
1.42054e+07
55.298
42726.9
3.64327e+07
3813.6
72255.2
8546.86
463351
132.302
20.1922
8440.81
755657
192.119
1312.31
698.766
66.8248
20.0814
71316.5
111578
2334.25
37613.2
15.467
1825.44
60.0149
1246.81
298.422
108.777
472.633
0.643417
130278
2210.36
10930
3148.36
164.872
5196.82
81.5143
3166.89
160.797
1119.3
6852.72
333.038
64.5565
122.508
171.129
14.2757
114.896
1236.23
2.96615
1.37841
7.46253
20.7176
3.69172
39.7319
22.8245
0.822987
3.573
495.032
57.1006
1.94857
306.567
52.2823
11.437
31.7947
134.339
114.101
41.0817
6.12626
25.4754
12236.1
12.4856
1.41241
4.48351
2.44784
8.19504
117.996
2.31905
1.04792
1.62337
1.78528
5.31111
3.69628
2.22144
102.435
4.44785
2.31172
133.739
0.410969
121.034
16.7965
103.012
0.746745
4.18273
6.4251
38.8062
2.88519
6.9755
245.509
2.26238
1.17494
1.65694
1.83328
0.725611
1.71314
3.00992
1.45867
3.40566
3.89971
2.67608
5.04668
1.69772
12.1719
1.32628
6.35783
0.525601
3.42816
1.98816
175.292
434.484
138.364
100.291
1.22086
100.122
103.463
2.36006
0.768278
2.40554
148.065
1
SCALARS cell_area_modifier float
LOOKUP_TABLE default
100
0.798658
1.02146
0.358974
0.378981
0.415358
0.53125
0.324693
0.391447
4.10345
0.450758
2.42857
0.320323
0.569378
0.693878
0.482759
0.298246
1.50633
0.411765
0.313984
0.318182
0.422735
0.426523
0.333801
0.348463
0.331476
0.290954
0.296389
0.311927
0.487705
100
0.840989
0.419014
0.562648
0.289186
100
0.397993
100
100
100
100
8.5
100
4.49057
100
1.11737
100
100
100
100
100
100
100
100
100
100
100
100
100
100
100
0.683908
100
4.95833
0.438306
1.55556
0.307891
0.388254
2.70455
0.351032
0.28744
0.401349
0.364472
1.85937
100
100
0.43038
0.385113
100
100
100
100
0.477912
0.549654
0.497908
100
0.904943
100
0.343434
1.33708
100
100
100
0.714715
100
100
100
0.537246
100
0.760383
1.09174
100
0.309896
100
0.88806
100
0.508547
0.326923
1.23316
5.53488
100
100
2.2037
1.66434
100
0.72561
0.373041
0.303959
100
0.294554
1.46012
0.394693
18.3077
0.503171
0.305913
100
0.292743
0.340974
100
100
0.514039
100
13.2222
0.34593
0.590571
0.455067
0.404762
100
0.382022
0.62141
100
2.86747
0.62963
100
100
0.442379
0.322493
79.3333
100
0.63807
0.772727
100
0.408233
0.446529
0.329184
0.338549
0.459459
1.20202
1.26596
1.37572
7.21212
0.30203
1.06726
0.922481
0.463938
0.785479
1.60811
0.605598
10.3478
0.959677
3.26027
0.59799
0.300126
29.75
100
100
0.434307
0.375987
0.361702
100
0.856115
1.04386
0.316069
0.556075
0.35364
0.940711
0.664804
0.871795
1.14423
1.72464
3.5
0.356287
0.367284
100
0.583333
1.93496
100
0.37014
100
0.736842
100
0.468504
0.336158
0.543379
6.26316
0.519651
0.979424
100
0.525386
1.17241
0.704142
0.826389
0.655647
0.812287
2.01695
1.41667
2.10619
3.77778
0.674221
0.576271
1.30055
0.613402
0.646739
3.05128
0.492754
2.55914
0.473161
100
100
100
100
1
100
100
2.31068
0.748428
1.78947
100
1
SCALARS cell_Gaussian_modifier float
LOOKUP_TABLE default
2.15673e+15
2.01635e+14
5.19324e+13
1.39685e+14
3.604e+13
2.13899e+12
3.11728e+09
1.70707e+11
2.69888e+13
9.80571e+12
1.46087e+11
3.61947e+10
6.79288e+07
9.40767e+08
3.23556e+11
4.58154e+12
1.22548e+11
3.09796e+08
3.05305e+07
336514
5.4611e+07
6.05989e+08
1.25328e+10
2.70021e+09
4.2989e+07
1.83834e+06
229617
396909
1.31781e+07
3.84095e+07
2.46047e+09
7.82251e+06
647854
46902.4
3045.89
2.50975e+06
1.29294e+07
5.02399e+16
9.93081e+15
8.43732e+14
1.85355e+12
1.87731e+11
5.0056e+10
5.63793e+08
7.73873e+07
230897
2831.48
950396
7.64942e+06
3.72185e+09
1.56332e+10
7.47688e+10
2.91753e+14
6.11039e+15
7.85037e+16
100
2.3043e+14
8.63978e+09
15.2387
6.02892e+08
3.14696e+13
64004.3
11394.9
1.23973e+11
4.23494e+09
1.92019e+09
218527
2.40748e+06
4.43853e+07
2.23666e+06
40813.5
34710.6
2.51182e+06
2.9475e+12
1.06404e+12
8.66672e+09
85413.8
1.30438e+09
1.45602e+08
4.72499e+16
43.7609
3.69128e+15
4.05823e+06
155027
3.18283
4.40045e+15
4.91963e+11
5.95875e+14
3.04622e+06
1.80208e+08
6.17431e+15
100
7.0111e+12
1.68198e+09
1.0315e+13
4.09588e+07
7.14147e+06
3.89263e+10
4.71242e+11
2.77408e+08
3.45741e+08
3.59022e+07
27711.8
21610.9
393.595
3.17708e+06
878469
2930.52
3939.64
859145
219.071
142054
25.0932
25672.1
364327
5255.72
193692
28118.5
4633.51
449.161
13.8291
21385.7
41275.4
381.817
4289.82
6.98766
228.271
58.8943
713.165
1115.78
4541
376.132
1.16977
5276.9
101.622
2739.83
737.278
1.08777
1237.19
1.03542
1302.78
770.841
17359.4
31.4836
1.64872
11747.4
252.763
39.9187
1.60797
1754.2
8868.23
3.33038
158.136
274.355
519.857
42.1674
250.067
1028.46
2.34301
1.00195
1.03472
68.5944
3.45905
43.0707
49.1973
1.04775
2.22186
817.427
5.51813
2.03044
94.031
87.4301
38.1073
1.06873
1.34339
1.14101
94.5914
16.2938
70.4321
122.361
14.584
1.35307
14.1852
4.402
23.1734
125.433
3.48832
1.20202
1.41874
1.03517
1.51746
10.3744
6.0483
1.02435
7.62488
1.19471
1.33739
1.11031
1.21034
22.7952
1.03012
1.59389
12.4428
11.8243
6.19595
5.55218
7.12204
2.45509
4.30613
1.00216
2.35313
2.21842
1.10671
2.10903
1.49231
1.02965
1.61697
1.03228
3.96915
8.75747
1.30539
19.8433
2.05072
2.08366
1.06666
1.33958
4.20186
1.75292
4.34484
1.38364
1.00291
1.22086
1.00122
1.03463
1.02137
1.02652
1.34427
1.48065
1
