# vtk DataFile Version 2.0
2D-vertex
ASCII
DATASET UNSTRUCTURED_GRID
POINTS 266 float
0.347237 -2.10339 0
3.05059 -1.75695 0
3.38134 -0.869808 0
2.38735 0.0991979 0
-0.109209 0.20452 0
-0.830931 -1.15959 0
4.05517 -0.795244 0
4.58682 0.117337 0
3.68218 1.40551 0
2.49438 1.00087 0
1.27316 2.03516 0
-0.559273 2.59207 0
-1.35029 1.37602 0
-1.67773 1.30654 0
-2.16095 -0.0752162 0
-1.69506 -0.903813 0
5.18692 0.0129886 0
6.08744 1.05318 0
4.24167 2.19993 0
3.85983 2.08143 0
3.07563 2.84994 0
1.80956 2.70163 0
1.20482 5.85513 0
0.0133259 5.75686 0
-0.645953 4.00921 0
-2.09294 3.35466 0
-2.10281 1.74147 0
-3.54822 1.49139 0
-3.99153 0.724397 0
-3.71995 0.0269326 0
7.20616 1.18072 0
7.85883 2.17354 0
7.46951 3.38027 0
5.35673 3.99478 0
5.92381 4.76508 0
3.44313 5.49029 0
2.68858 6.45987 0
1.65018 6.52267 0
0.531088 9.29736 0
-1.10743 9.04332 0
-0.800051 6.48652 0
-2.69256 5.74611 0
-3.63811 4.59234 0
-4.84394 4.76579 0
-5.50998 3.80843 0
-6.99588 3.70059 0
-7.3092 2.89827 0
-5.70949 1.1842 0
7.97985 4.38431 0
7.61483 5.14885 0
7.05857 5.32224 0
6.05812 7.24191 0
3.68961 7.70618 0
3.46692 8.482 0
2.00652 9.59269 0
2.61863 10.7204 0
-1.97387 10.259 0
-1.99637 9.63283 0
-3.30757 8.64242 0
-3.16872 6.76374 0
-4.95615 7.51269 0
-6.34103 6.70084 0
-8.36755 5.99149 0
-8.35423 5.24744 0
8.46322 5.79484 0
8.4786 6.02659 0
6.94342 7.55826 0
6.9438 9.12289 0
5.66563 9.75296 0
5.64943 10.9162 0
4.84858 11.4492 0
4.45321 12.6403 0
-1.84217 12.4914 0
-2.44693 12.0213 0
-6.06804 11.8823 0
-5.68796 10.2303 0
-6.56585 9.53075 0
-6.4885 8.88771 0
-9.14101 7.05385 0
-9.07512 6.35053 0
9.76961 6.6118 0
9.86897 7.91004 0
9.01909 8.84314 0
9.79904 9.42953 0
9.05872 11.0753 0
9.03513 12.0701 0
4.70224 15.4309 0
3.81194 17.486 0
-2.7186 17.961 0
-3.37662 17.206 0
-9.04072 13.033 0
-8.99829 12.0069 0
-9.60853 11.5361 0
-9.21593 9.95281 0
-10.1233 8.8092 0
-9.96223 7.42508 0
3.96337 -3.4592 0
5.2491 -2.79696 0
6.20152 -2.24878 0
8.58578 -0.277709 0
9.75918 1.42477 0
10.7958 4.06587 0
10.9778 4.60462 0
11.4791 5.96309 0
11.7825 8.18197 0
11.755 9.25192 0
10.6337 13.004 0
4.61145 19.2982 0
-3.21403 19.8146 0
-10.5013 13.8409 0
-11.2519 12.1379 0
-11.899 9.05312 0
-11.643 6.77495 0
-11.0439 5.2779 0
-10.468 4.11976 0
-9.46338 2.12515 0
-7.51701 -0.380047 0
-5.2824 -2.02089 0
-2.99547 -3.13033 0
0.155971 -3.95378 0
9.28242 15.1324 0
7.04072 13.8656 0
-7.51359 17.6741 0
-6.28325 15.969 0
-0.476871 3.80673 0
1.09487 3.99069 0
-2.07253 5.61239 0
-1.52072 4.00085 0
4.84828 5.91801 0
5.05844 6.98954 0
0.340382 10.7881 0
0.189471 9.57774 0
-1.36113 7.6038 0
-2.79856 7.39581 0
6.05774 7.24438 0
4.89877 9.03229 0
4.1185 9.20002 0
3.69519 10.5994 0
2.20545 11.3601 0
2.1946 11.3331 0
-2.49926 10.6335 0
-4.38056 9.88328 0
-4.10477 8.87804 0
-4.95644 8.20803 0
1.3617 1.6126 0
-0.152794 0.474889 0
6.67058 3.41996 0
5.76677 1.53346 0
5.35701 3.99404 0
3.3682 4.43407 0
-6.94904 14.3539 0
-5.67301 12.2506 0
3.24292 4.35534 0
1.68595 4.85747 0
-9.13955 9.54093 0
-7.95335 8.37027 0
-0.937378 -1.20886 0
-1.32926 -3.70478 0
1.24933 17.8951 0
0.946993 19.8607 0
1.26116 -1.69991 0
1.32914 -0.401794 0
2.51623 8.64125 0
1.36628 7.29693 0
7.00241 13.0191 0
4.93826 12.0969 0
2.66474 17.5535 0
0.561315 12.6365 0
-3.0074 -0.320417 0
-3.7236 -2.81931 0
-4.99521 2.69971 0
-5.80059 1.81391 0
-6.08203 -1.51528 0
-4.98512 0.633724 0
0.403092 7.6733 0
-0.733694 7.08429 0
9.04687 8.40889 0
7.66271 7.24713 0
5.93863 0.502663 0
7.65347 -1.18795 0
1.85032 -3.99131 0
1.81467 -2.10775 0
-6.80813 2.03207 0
-8.35698 0.504046 0
-6.19453 5.48625 0
-7.45821 4.6862 0
7.82726 3.66216 0
10.2517 2.50274 0
-11.6799 10.5501 0
-9.21779 9.95112 0
11.3605 11.4233 0
9.66967 10.7225 0
-3.30197 3.66493 0
-4.14462 2.59803 0
-9.966 3.13196 0
-7.51414 4.20474 0
-4.11571 6.71188 0
-5.01495 5.18171 0
-7.21853 8.23873 0
-6.96653 6.97471 0
7.69498 9.55795 0
7.74431 10.4104 0
-0.534693 12.1161 0
-0.362775 11.2054 0
8.45804 16.3241 0
6.86627 15.2525 0
4.4838 15.5671 0
1.65396 12.1747 0
6.75634 11.3105 0
7.63882 12.6466 0
-7.5227 10.0876 0
-7.49214 11.3311 0
-1.35031 14.8201 0
0.858437 14.4811 0
-5.40665 16.0309 0
-3.79289 12.5832 0
7.62682 12.7212 0
9.83518 14.2921 0
-4.08882 17.4318 0
-4.64368 19.3997 0
-9.62567 15.2382 0
-7.73194 13.9312 0
2.61948 19.8065 0
2.70886 17.5969 0
6.69782 14.1272 0
5.1056 13.8827 0
-7.77446 13.5979 0
-6.72485 12.0503 0
1.65705 14.7429 0
2.55827 13.7103 0
-4.53369 11.9069 0
-3.9668 10.4078 0
3.38022 13.8085 0
4.08098 12.6225 0
6.87813 17.813 0
5.93778 16.0116 0
-2.17098 14.041 0
-3.04546 14.2896 0
0.11316 16.8425 0
-0.19768 15.2579 0
-5.86784 13.7878 0
-3.93974 13.4947 0
-8.88303 16.2581 0
-7.02393 15.1278 0
2.7969 15.981 0
3.78204 15.2495 0
-1.00388 14.7084 0
-0.226758 12.5202 0
-1.50582 17.9422 0
-1.1116 19.9861 0
0.656891 16.9298 0
1.8556 15.603 0
-1.75243 16.0473 0
-1.02501 17.2535 0
-5.14831 16.8745 0
-6.43867 18.4808 0
-3.04023 16.2231 0
-3.51756 15.5893 0
-5.24288 14.1566 0
-4.98248 15.5195 0
6.33162 18.2245 0
4.58687 16.7303 0
-0.31792 17.3498 0
0.205063 19.8829 0
4.79149 15.0883 0
3.74304 13.1944 0
CELLS 134 884
5 0 160 161 4 5
6 6 7 8 9 3 2
6 144 145 4 161 3 9
8 156 5 4 145 12 13 14 15
8 7 16 178 17 147 18 19 8
7 144 9 8 19 20 21 10
6 23 24 124 125 153 22
8 25 26 13 12 11 124 24 127
7 14 13 26 27 28 29 168
6 31 32 146 147 17 30
7 18 33 148 149 152 20 19
5 20 152 153 125 21
7 22 37 163 174 175 40 23
5 24 23 40 126 127
5 26 25 192 193 27
7 28 27 193 170 171 47 173
9 50 34 148 33 146 32 186 48 49
5 36 35 128 129 52
6 36 52 53 162 163 37
6 38 54 55 139 130 131
7 40 175 132 133 59 41 126
6 42 41 59 196 197 43
7 44 43 197 184 185 195 45
8 49 64 65 177 66 134 51 50
7 51 134 135 136 53 52 129
6 53 136 137 55 54 162
8 55 137 70 165 71 233 138 139
7 57 56 140 231 141 142 58
7 59 133 58 142 143 60 196
6 61 60 143 77 198 199
5 65 80 81 176 177
6 67 200 201 208 69 68
7 69 208 209 216 164 165 70
5 71 225 264 265 233
6 73 72 236 237 241 215
5 91 92 93 210 211
8 77 76 210 93 189 154 155 198
5 6 2 1 96 97
5 16 7 6 97 98
5 30 17 178 179 99
4 48 186 187 101
5 64 49 48 101 102
5 80 65 64 102 103
6 81 104 105 83 82 176
4 190 191 83 105
5 120 121 164 216 217
5 123 214 254 255 122
5 92 91 90 109 110
5 92 110 188 189 93
5 79 78 95 112 113
5 63 62 79 113 114
5 194 195 185 63 114
4 47 116 172 173
5 15 14 168 169 118
5 0 5 156 157 119
5 181 160 0 119 180
4 99 100 31 30
4 103 104 81 80
4 248 249 108 88
4 111 112 95 94
5 171 182 183 116 47
5 120 204 205 224 121
4 122 242 243 123
5 124 11 10 21 125
6 126 41 42 192 25 127
5 128 34 50 51 129
6 130 203 56 57 39 131
5 132 39 57 58 133
5 134 66 67 68 135
6 136 135 68 69 70 137
8 138 207 167 247 202 203 130 139
5 140 73 215 230 231
6 142 141 75 76 77 143
5 144 10 11 12 145
4 146 33 18 147
5 148 34 128 35 149
7 150 221 226 227 74 151 240
7 152 149 35 36 37 22 153
5 154 94 95 78 155
4 156 15 118 157
4 223 87 107 222
6 160 181 1 2 3 161
5 162 54 38 174 163
6 164 121 224 225 71 165
5 166 158 250 251 244
4 168 29 117 169
6 170 44 45 46 182 171
5 172 117 29 28 173
6 174 38 131 39 132 175
6 176 82 200 67 66 177
4 178 16 98 179
4 180 96 1 181
4 182 46 115 183
6 184 61 199 62 63 185
5 186 32 31 100 187
5 188 111 94 154 189
5 190 106 85 84 191
6 192 42 43 44 170 193
5 194 115 46 45 195
5 196 60 61 184 197
6 198 155 78 79 62 199
6 200 82 83 191 84 201
6 202 72 73 140 56 203
4 204 234 235 205
7 206 261 87 223 166 244 245
5 208 201 84 85 209
6 210 76 75 74 227 211
5 213 239 246 247 167
7 214 123 243 150 240 258 259
5 216 209 85 106 217
5 218 89 88 108 219
5 220 109 90 226 221
5 222 159 158 166 223
6 224 205 235 86 264 225
5 226 90 91 211 227
5 228 213 167 207 229
6 230 151 74 75 141 231
6 232 229 207 138 233 265
6 234 260 261 206 86 235
6 236 212 252 256 257 237
6 256 252 253 248 88 89
6 240 151 230 215 241 258
5 242 220 221 150 243
6 244 251 228 229 232 245
6 246 212 236 72 202 247
5 248 253 262 263 249
6 250 238 239 213 228 251
7 252 212 246 239 238 262 253
4 254 218 219 255
7 256 89 218 254 214 259 257
5 258 241 237 257 259
4 260 107 87 261
6 262 238 250 158 159 263
6 264 86 206 245 232 265
CELL_TYPES 134
7
7
7
7
7
7
7
7
7
7
7
7
7
7
7
7
7
7
7
7
7
7
7
7
7
7
7
7
7
7
7
7
7
7
7
7
7
7
7
7
7
7
7
7
7
7
7
7
7
7
7
7
7
7
7
7
7
7
7
7
7
7
7
7
7
7
7
7
7
7
7
7
7
7
7
7
7
7
7
7
7
7
7
7
7
7
7
7
7
7
7
7
7
7
7
7
7
7
7
7
7
7
7
7
7
7
7
7
7
7
7
7
7
7
7
7
7
7
7
7
7
7
7
7
7
7
7
7
7
7
7
7
7
7
CELL_DATA 134
SCALARS cell_division_count float
LOOKUP_TABLE default
1
0
1
0
0
0
1
0
0
1
1
1
1
1
1
1
0
1
1
1
1
1
1
0
1
1
1
1
1
1
1
1
2
4
3
1
1
0
0
1
1
0
0
0
1
2
3
0
1
0
0
1
1
1
1
1
0
0
2
0
1
2
3
1
1
1
1
1
1
1
2
2
1
1
1
1
2
1
1
1
2
1
1
2
4
1
1
1
1
1
1
1
1
1
1
1
1
1
1
1
1
1
2
3
4
2
1
3
4
2
2
2
2
2
2
3
2
3
4
4
4
3
3
4
3
3
4
4
3
4
4
4
3
4
SCALARS cell_time float
LOOKUP_TABLE default
381
2.22229e+13
401
4.48239e+13
2.67348e+11
1.25633e+10
411
2.68223e+09
9.19769e+11
401
401
391
361
411
331
371
1.22639e+06
411
381
411
411
311
351
24193.4
411
411
411
411
411
301
361
301
261
1
151
251
391
1.00108e+18
2.94533e+15
361
351
105493
1755.76
467.338
341
241
41
458.006
351
3109.01
726.177
331
371
381
391
361
1.12104e+13
21576.3
91
2447.96
361
281
101
411
411
411
411
411
411
411
291
171
411
401
401
401
231
391
391
391
241
381
381
241
51
381
371
371
361
361
361
361
361
351
351
351
341
331
331
311
301
301
291
161
101
261
251
101
21
241
241
241
241
241
231
191
171
161
21
31
51
121
101
101
101
11
51
51
41
31
21
21
11
1
SCALARS cell_area float
LOOKUP_TABLE default
3.24504
3.30102
3.28915
3.35884
3.35125
3.33787
3.31065
3.37381
3.34786
3.27714
3.32838
3.27854
3.35629
3.30196
3.30117
3.32932
3.39801
3.26828
3.31343
3.34463
3.3613
3.32611
3.3357
3.3617
3.33464
3.33647
3.39153
3.34991
3.36029
3.3136
3.24858
3.29172
3.33784
3.33417
3.28757
3.24666
3.34383
3.26266
3.27193
3.25903
3.2513
3.29083
3.2734
3.2919
3.2269
3.28598
3.27019
3.2708
3.26946
3.26294
3.28214
3.28728
3.22856
3.26924
3.25562
3.25115
3.21775
3.22359
3.23413
3.20701
3.25926
3.27005
3.23908
3.27291
3.32568
3.28633
3.33428
3.30829
3.27564
3.33189
3.38149
3.27222
3.32528
3.28147
3.2393
3.2687
3.32084
3.33382
3.23715
3.23376
3.22185
3.2619
3.29496
3.31412
3.25518
3.23449
3.29739
3.26479
3.32844
3.28177
3.23543
3.21153
3.2274
3.3001
3.26562
3.26321
3.26409
3.31839
3.27717
3.2873
3.28753
3.26685
3.31747
3.22473
3.30614
3.24952
3.29943
3.2621
3.32005
3.27615
3.26597
3.27879
3.27293
3.25296
3.24459
3.26029
3.30481
3.29485
3.29229
3.29465
3.28948
3.29442
3.28221
3.29191
3.29543
3.29202
3.28345
3.32595
3.23169
3.31117
3.26251
3.22603
3.31981
80
SCALARS cell_perimeter float
LOOKUP_TABLE default
6.91269
6.85919
7.09512
6.99902
6.99114
6.901
7.06642
7.22597
6.84719
7.05132
7.31115
6.9484
6.83124
7.08256
6.94496
6.74064
7.07933
6.93296
7.00366
7.12721
6.90252
7.00645
7.0274
7.23996
7.28414
6.84133
7.30594
6.94158
6.79855
6.92522
6.95632
6.82187
7.42031
7.27702
6.83753
6.99529
7.2633
7.33326
7.57381
7.41488
7.91446
8.09809
7.70815
7.33963
7.3006
7.83
7.26809
7.07801
7.56228
7.26424
7.46888
7.72202
7.54269
7.80158
7.51958
7.12548
7.30594
7.30276
7.32259
7.28048
7.45278
7.51188
7.36902
7.04455
6.9272
7.12858
7.0018
6.97048
7.11235
6.87048
7.18089
6.93787
6.92491
7.19051
7.30331
7.09825
7.08359
7.02174
6.9603
7.68419
7.35658
6.77795
7.01633
7.28207
6.9691
7.7194
6.80229
7.68085
7.03036
6.96337
7.58233
7.27918
7.42781
6.91492
7.63856
7.48291
7.12198
6.80951
7.67464
6.98266
7.01984
6.81236
6.95547
7.3212
6.9961
6.91639
6.89833
7.27379
6.77515
7.66313
7.20059
7.34154
7.39141
6.91306
6.98607
7.04768
7.04873
7.23201
7.8037
6.80803
6.80151
6.85319
7.40554
6.81843
7.2702
7.54238
6.98782
7.03366
7.31877
6.78975
6.89507
7.38798
7.66645
74
SCALARS cell_frequency_modifier float
LOOKUP_TABLE default
3.22717e+16
2.40576e+12
1.12478e+12
2.32156e+12
5.30258e+10
3.76491e+09
2.23122e+06
2.74458e+08
2.17277e+11
1.08267e+10
5.71298e+07
8.33083e+07
14600.5
764915
9.3093e+08
1.34265e+10
4.49824e+06
815875
3931.52
30.1353
14025
191367
2.40724e+06
22381.7
1202.9
85.0055
4.79979
56.379
1671.01
2452.83
1.41011e+06
74.7894
3.65879
0.74488
3.46691
3359.6
114.81
1.04901e+18
1.42849e+15
3.06107e+14
7.41178e+09
2.871e+06
644645
749.464
9218.83
2.64841
3.77238
21.9312
212.8
5.61462e+06
987098
1.34736e+07
8.00523e+14
1.02487e+16
7.46109e+18
10000
1.59209e+13
1.63767e+06
164.872
316779
2.17704e+13
6.16436
102.604
1.0543e+09
3.22978e+06
183818
39.7951
722.559
2328.44
37.4147
4.07155
47.9024
155.791
4.24795e+10
8.83182e+10
2.26416e+07
1.72135
287216
210520
3.4803e+18
140.626
4.54331e+16
838.698
1.67274
100.019
8.35486e+16
4.75633e+08
3.49464e+15
640.486
1806.96
1.04852e+16
10000
1.35687e+12
164108
1.41282e+11
22829.3
1546.71
3.0331e+07
3.99493e+08
93157.3
15075.1
2953.22
8.86357
101.706
0.521881
1834.97
23.2822
233.012
0.603514
8.12337
350.046
3.23075
3.08634
141.33
735.98
295.284
15.6077
3.55444
0.699242
0.864129
0.839768
2.93647
1.6025
1.07952
1.95141
0.984486
1.25647
0.430988
119.423
0.497716
162.266
115.971
0.540652
1
SCALARS cell_area_modifier float
LOOKUP_TABLE default
100
0.564756
0.855305
0.312573
0.320096
0.340589
0.500942
0.298541
0.32799
1.65217
0.396423
1.46961
0.31629
0.541752
0.553015
0.384949
0.288817
12.6667
0.482759
0.332085
0.305396
0.402421
0.354194
0.30193
0.358974
0.34954
0.291987
0.323995
0.308943
0.474153
100
0.780059
0.345006
0.368932
0.883721
100
0.336283
100
2.92308
100
100
0.803625
2.03053
0.757835
100
1.05976
3.74648
3.28395
5.21569
100
1.20362
0.98155
100
6.4878
100
100
100
100
100
100
100
4.36066
100
2.3964
0.414977
1.01916
0.363885
0.510557
1.88652
0.379458
0.295228
2.63366
0.421553
1.32338
100
8.58065
0.428341
0.374121
100
100
100
100
0.631829
0.465849
100
100
0.603175
100
0.390602
1.26066
100
100
100
0.577007
100
100
100
0.450085
1.55556
0.946619
0.914089
24.1818
0.457831
100
0.520548
100
0.5898
100
0.435352
1.76159
266
1.39267
2.19835
100
100
100
0.530938
0.647202
0.698163
0.663342
0.82866
0.680307
1.15152
0.736842
0.617169
0.716981
1.10373
0.408602
100
0.491682
100
100
0.442596
1
SCALARS cell_Gaussian_modifier float
LOOKUP_TABLE default
3.22717e+14
4.25983e+12
1.31507e+12
7.42724e+12
1.65656e+11
1.10541e+10
4.45404e+06
9.19332e+08
6.62449e+11
6.55301e+09
1.44113e+08
5.66872e+07
46161.8
1.41193e+06
1.68337e+09
3.48787e+10
1.55747e+07
64411.2
8143.87
90.7459
45924.1
475540
6.79639e+06
74128.8
3350.92
243.192
16.4384
174.012
5408.81
5173.07
14101.1
95.8767
10.605
2.01902
3.92309
33.596
341.409
1.04901e+16
4.88692e+14
3.06107e+12
7.41178e+07
3.57257e+06
317476
988.955
92.1883
2.49906
1.00691
6.67831
40.7999
56146.2
820108
1.37268e+07
8.00523e+12
1.57969e+15
7.46109e+16
100
1.59209e+11
16376.7
1.64872
3167.79
2.17704e+11
1.41363
1.02604
4.39953e+08
7.78305e+06
180363
109.362
1415.24
1234.25
98.6005
13.7912
18.1885
369.565
3.20992e+10
8.83182e+08
2.63869e+06
4.01865
767710
2105.2
3.4803e+16
1.40626
4.54331e+14
1327.41
3.59074
1.00019
8.35486e+14
7.88549e+08
3.49464e+13
1639.74
1433.34
1.04852e+14
100
1.35687e+10
284413
1.41282e+09
228.293
15.4671
6.73896e+07
2.56817e+08
98410.5
16491.9
122.126
19.3599
1.01706
1.00256
18.3497
39.4747
2.33012
1.38627
4.61139
1.31596
2.31982
1.40394
1.4133
7.3598
2.95284
29.3964
5.492
1.00155
1.30269
1.0134
4.31639
1.39165
1.46507
3.16187
1.3731
1.13838
1.05479
1.19423
1.01227
1.62266
1.15971
1.22155
1
