# vtk DataFile Version 2.0
2D-vertex
ASCII
DATASET UNSTRUCTURED_GRID
POINTS 378 float
0.196785 -2.0689 0
2.72389 -1.91303 0
3.12949 -0.9985 0
2.15225 0.0785332 0
-0.189738 0.294637 0
-0.951752 -1.13276 0
3.70516 -0.976717 0
4.30003 -0.133503 0
3.44093 1.34555 0
2.32325 1.04696 0
1.17175 2.26707 0
-0.563018 2.83537 0
-1.37337 1.60463 0
-1.59714 1.55738 0
-2.13505 0.0054939 0
-1.65776 -0.877202 0
4.88372 -0.304063 0
5.7697 0.576953 0
4.0055 2.05985 0
3.66267 1.98574 0
2.85671 2.92664 0
1.70329 2.87491 0
1.19728 6.25116 0
0.122512 6.22787 0
-0.641651 4.46821 0
-1.99069 3.72017 0
-1.97257 1.94416 0
-3.32891 1.68271 0
-3.82931 0.75121 0
-3.54602 0.0411463 0
6.86155 0.567046 0
7.53966 1.33371 0
7.36241 2.63369 0
5.21129 3.7162 0
5.73132 4.31167 0
3.37943 5.53405 0
2.71281 6.68142 0
1.67867 6.86244 0
0.654816 9.64925 0
-1.09081 9.61119 0
-0.725032 7.03279 0
-2.47934 6.21361 0
-3.45811 4.87676 0
-4.54461 4.95363 0
-5.24405 3.73251 0
-6.6974 3.47761 0
-6.9883 2.50218 0
-5.43389 1.0559 0
7.86564 3.33821 0
7.56401 4.29728 0
6.8871 4.65987 0
6.23153 6.66079 0
3.85877 7.72777 0
3.78339 8.44234 0
2.30045 9.80873 0
2.89853 10.614 0
-2.16691 10.8121 0
-2.13913 10.2348 0
-3.31921 9.13519 0
-3.03244 7.20765 0
-4.83431 7.68611 0
-6.17415 6.55228 0
-8.14472 5.31709 0
-8.01761 4.71905 0
8.54362 4.74951 0
8.54893 4.76752 0
7.21701 6.69698 0
7.61036 7.9986 0
6.45345 9.0742 0
6.66966 9.85448 0
6.02262 10.6708 0
5.99126 11.0496 0
-2.91965 13.0756 0
-3.10009 12.9254 0
-6.68511 11.0982 0
-6.00948 10.0342 0
-6.7299 8.97393 0
-6.59457 8.63906 0
-9.11285 5.97585 0
-8.9503 5.51813 0
10.0549 5.0911 0
10.3936 6.13344 0
9.68093 7.15535 0
10.7819 7.56614 0
10.539 9.15968 0
10.7753 10.0058 0
9.70662 15.0761 0
9.69348 17.9341 0
-8.96697 17.8686 0
-9.02305 17.3915 0
-10.5617 11.0064 0
-10.2232 10.2826 0
-10.5805 9.71173 0
-9.82062 8.46698 0
-10.559 7.23217 0
-10.1164 6.13847 0
3.58515 -3.75569 0
4.8251 -3.22013 0
5.7045 -2.8112 0
8.13306 -1.21244 0
9.46231 0.239612 0
10.8357 2.58102 0
10.9627 2.80527 0
11.7104 3.94533 0
12.5033 5.91714 0
12.7226 6.76191 0
12.8664 10.4151 0
11.5742 19.0232 0
-11.2649 19.2081 0
-12.7638 11.1737 0
-12.7812 9.70299 0
-12.5108 6.98211 0
-11.7148 4.96381 0
-10.8816 3.78602 0
-10.2502 2.96667 0
-9.27187 1.49189 0
-7.31741 -0.708791 0
-5.21068 -2.1588 0
-3.08642 -3.19038 0
-0.0709068 -4.0579 0
12.5485 12.5355 0
9.27876 11.9998 0
-12.5511 14.6004 0
-10.2453 14.5823 0
-0.435709 4.19603 0
1.0126 4.29671 0
-1.99259 6.13167 0
-1.36635 4.47004 0
4.75746 5.73804 0
5.14939 6.68913 0
0.325251 10.9818 0
0.157983 10.1039 0
-1.30967 8.22164 0
-2.68296 7.9484 0
6.23098 6.66322 0
5.46059 8.52508 0
4.49733 8.96635 0
4.42942 10.1308 0
2.54216 11.3327 0
2.54045 11.3309 0
-2.95385 11.2674 0
-4.50139 10.0533 0
-4.07607 9.2324 0
-4.93099 8.27438 0
1.26237 1.70766 0
-0.239225 0.701771 0
6.54816 2.84883 0
5.43633 1.23266 0
5.20916 3.71749 0
3.17352 4.45128 0
-9.38798 12.4477 0
-6.44577 11.6351 0
3.1711 4.45063 0
1.65114 5.11005 0
-9.74552 8.31233 0
-8.319 7.57425 0
-1.00494 -1.15782 0
-1.46325 -3.78787 0
2.06872 24.9452 0
2.36986 26.4717 0
1.04506 -1.73039 0
1.17815 -0.328497 0
2.67649 8.81389 0
1.46072 7.67272 0
9.11226 11.3521 0
6.10828 10.8421 0
5.89471 22.0712 0
0.582076 12.5392 0
-2.94849 -0.243911 0
-3.68404 -2.92937 0
-4.68645 2.75718 0
-5.54867 1.67617 0
-5.88802 -1.75047 0
-4.80612 0.620645 0
0.429847 8.17541 0
-0.647385 7.67488 0
9.62929 6.90186 0
8.00595 6.08534 0
5.57363 0.0502435 0
7.21486 -1.92389 0
1.51351 -4.15753 0
1.58184 -2.17087 0
-6.52638 1.82004 0
-8.09565 0.0229151 0
-5.84144 5.43152 0
-7.12325 4.33634 0
7.67318 2.79356 0
10.0576 1.1395 0
-12.7038 8.3928 0
-9.82236 8.46517 0
12.9991 8.8495 0
10.9995 8.67536 0
-3.07084 3.9569 0
-3.95194 2.72013 0
-9.77604 2.29265 0
-7.12429 3.81461 0
-3.94546 7.05599 0
-4.72143 5.29177 0
-7.28344 7.66047 0
-6.85645 6.69897 0
8.61495 8.22527 0
8.86358 8.87416 0
-0.867076 12.3124 0
-0.785936 11.7008 0
12.5517 12.7346 0
10.2078 13.5217 0
9.53131 16.2977 0
2.41565 11.5617 0
8.2635 9.92762 0
9.60301 10.9495 0
-7.91222 9.21366 0
-8.23066 10.1678 0
-2.31175 14.5163 0
1.14845 13.8072 0
-9.91504 15.2708 0
-4.49656 13.0609 0
9.60246 10.952 0
12.6593 11.7077 0
-10.0618 17.0248 0
-11.8432 18.0392 0
-12.6662 12.4813 0
-9.66125 12.0991 0
9.74895 21.6724 0
8.32046 19.7403 0
8.89959 12.3958 0
6.86069 12.2507 0
-9.65163 12.0718 0
-7.84868 10.9635 0
2.69489 14.6297 0
4.61663 13.4179 0
-4.99985 11.8274 0
-4.16222 10.8315 0
5.31835 13.3341 0
4.60491 11.6402 0
12.5687 14.7121 0
10.356 14.3773 0
-2.9561 14.2308 0
-4.96427 14.1775 0
-2.28203 24.0985 0
0.239267 15.054 0
-7.09101 12.4869 0
-4.98166 13.5489 0
-12.604 13.4071 0
-9.83835 13.3244 0
5.79815 17.761 0
7.90109 16.4367 0
-0.865857 13.7683 0
-0.554538 12.6126 0
-7.54731 21.7249 0
-9.04333 22.8979 0
1.13502 24.5655 0
2.45538 15.6557 0
-2.93258 16.6811 0
-6.8356 22.0539 0
-10.3953 15.92 0
-12.4263 16.0288 0
-6.60093 16.2867 0
-6.42238 14.8558 0
-6.89599 12.9964 0
-7.60442 14.3347 0
12.2067 17.1505 0
9.9791 16.9566 0
-5.29332 23.5335 0
-5.60331 25.3509 0
6.47629 13.2149 0
5.32017 13.3323 0
8.92526 18.2923 0
7.6467 17.4176 0
4.26143 14.413 0
6.31515 17.4984 0
-2.04066 15.5342 0
-0.262321 15.8134 0
7.22387 24.2533 0
5.82487 22.9089 0
0.523563 15.0305 0
1.56705 16.0547 0
3.982 23.3207 0
4.02348 16.7957 0
12.4073 15.9393 0
9.93671 15.6414 0
-8.16023 16.4638 0
-8.60587 15.4334 0
-9.65215 13.659 0
-7.72331 13.9141 0
-7.61288 20.9677 0
-5.82563 17.8118 0
0.387703 25.0474 0
0.426212 26.7029 0
2.11293 13.8082 0
2.99216 12.5497 0
-3.87747 16.1844 0
-4.11494 15.2519 0
-10.0241 21.5166 0
-8.4178 20.542 0
0.348792 17.3707 0
-0.117547 16.9842 0
7.91505 14.6699 0
7.2878 15.4039 0
9.09204 13.12 0
7.8143 14.1712 0
-6.70088 23.0196 0
-7.72846 24.2261 0
-2.51969 16.5404 0
-1.41505 17.547 0
1.69427 17.3266 0
3.17412 17.6493 0
6.45508 15.3057 0
6.04796 15.802 0
-6.04179 19.7473 0
-5.40566 20.0441 0
-8.46858 18.1434 0
-6.30674 17.2722 0
3.9687 16.4835 0
4.87765 15.5729 0
-4.35693 22.4433 0
-3.24163 18.398 0
5.43222 25.4294 0
4.76149 23.5981 0
-3.39341 26.1109 0
-2.70837 24.1532 0
7.38468 19.6559 0
6.89208 17.8223 0
8.27743 23.2157 0
6.64818 21.7574 0
3.50531 19.5375 0
4.83237 20.5316 0
1.04663 19.6335 0
2.95304 19.7469 0
0.256172 22.3993 0
-1.3599 22.6198 0
-1.79373 21.4014 0
-2.83679 20.5364 0
-6.16946 16.6479 0
-4.21119 15.2322 0
-4.45517 22.4501 0
-5.49406 21.3278 0
3.83239 21.8947 0
4.80491 21.3437 0
-10.7665 20.1824 0
-8.5308 19.0771 0
-8.31909 19.2334 0
-6.36454 18.8749 0
-0.984244 19.4255 0
0.0357276 18.9479 0
3.08395 23.8599 0
1.01944 20.6619 0
4.0739 25.9828 0
3.38302 23.9146 0
-4.71124 25.6474 0
-3.76896 23.2928 0
-5.05973 17.7295 0
-4.30593 18.6826 0
6.90875 20.3783 0
6.02287 19.7832 0
1.66886 17.3531 0
1.96714 19.1068 0
8.96604 19.0799 0
10.9416 20.1668 0
9.08877 22.3486 0
7.0875 20.3292 0
-3.36337 23.256 0
-2.32134 21.348 0
-1.63791 18.945 0
-2.39698 19.2022 0
2.28254 21.5013 0
2.80617 21.2592 0
-4.55266 19.6685 0
-3.59692 20.65 0
3.75782 18.7343 0
5.57628 18.5698 0
-0.955808 20.6034 0
0.195322 21.1495 0
1.1114 22.8867 0
2.13059 22.474 0
-1.33884 25.1048 0
-1.58031 26.5627 0
-0.31578 24.6441 0
-0.426968 22.8894 0
CELLS 190 1262
5 0 160 161 4 5
6 8 9 3 2 6 7
6 4 161 3 9 144 145
8 156 5 4 145 12 13 14 15
8 7 16 178 17 147 18 19 8
7 144 9 8 19 20 21 10
6 124 125 153 22 23 24
8 25 26 13 12 11 124 24 127
7 14 13 26 27 28 29 168
6 146 147 17 30 31 32
7 18 33 148 149 152 20 19
5 20 152 153 125 21
7 22 37 163 174 175 40 23
5 24 23 40 126 127
5 26 25 192 193 27
7 28 27 193 170 171 47 173
9 148 33 146 32 186 48 49 50 34
5 35 128 129 52 36
6 36 52 53 162 163 37
6 38 54 55 139 130 131
7 40 175 132 133 59 41 126
6 42 41 59 196 197 43
7 44 43 197 184 185 195 45
8 49 64 65 177 66 134 51 50
7 51 134 135 136 53 52 129
6 53 136 137 55 54 162
8 55 137 70 165 71 233 138 139
7 57 56 140 231 141 142 58
7 59 133 58 142 143 60 196
6 61 60 143 77 198 199
5 65 80 81 176 177
6 67 200 201 208 69 68
7 69 208 209 216 164 165 70
5 71 225 264 265 233
8 73 72 236 291 333 237 241 215
5 92 93 210 211 91
8 77 76 210 93 189 154 155 198
5 2 1 96 97 6
5 7 6 97 98 16
5 17 178 179 99 30
4 48 186 187 101
5 49 48 101 102 64
5 65 64 102 103 80
6 105 83 82 176 81 104
4 190 191 83 105
5 121 164 216 217 120
5 214 254 255 122 123
5 91 90 109 110 92
5 110 188 189 93 92
5 78 95 112 113 79
5 62 79 113 114 63
5 195 185 63 114 194
4 47 116 172 173
5 14 168 169 118 15
5 5 156 157 119 0
5 160 0 119 180 181
4 99 100 31 30
4 103 104 81 80
5 293 284 248 249 292
4 111 112 95 94
5 182 183 116 47 171
6 120 204 205 298 224 121
5 122 242 243 282 123
5 124 11 10 21 125
6 126 41 42 192 25 127
5 128 34 50 51 129
6 130 203 56 57 39 131
5 132 39 57 58 133
5 134 66 67 68 135
6 136 135 68 69 70 137
8 138 207 167 247 202 203 130 139
5 140 73 215 230 231
6 142 141 75 76 77 143
5 144 10 11 12 145
4 146 33 18 147
5 148 34 128 35 149
7 150 221 226 227 74 151 240
7 152 149 35 36 37 22 153
5 154 94 95 78 155
4 156 15 118 157
4 222 223 356 357
6 160 181 1 2 3 161
5 162 54 38 174 163
6 164 121 224 225 71 165
6 166 273 317 276 336 337
4 168 29 117 169
6 170 44 45 46 182 171
5 172 117 29 28 173
6 174 38 131 39 132 175
6 176 82 200 67 66 177
4 178 16 98 179
4 180 96 1 181
4 182 46 115 183
6 184 61 199 62 63 185
5 186 32 31 100 187
5 188 111 94 154 189
5 190 106 85 84 191
6 192 42 43 44 170 193
5 194 115 46 45 195
5 196 60 61 184 197
6 198 155 78 79 62 199
6 200 82 83 191 84 201
6 202 72 73 140 56 203
4 204 234 235 205
6 206 261 87 266 267 245
5 208 201 84 85 209
6 210 76 75 74 227 211
6 246 247 167 213 274 239
6 214 123 282 283 259 281
5 216 209 85 106 217
5 218 89 88 108 219
5 220 109 90 226 221
5 222 358 359 320 223
5 224 298 299 264 225
5 226 90 91 211 227
5 228 288 289 229 268
6 230 151 74 75 141 231
7 232 229 289 207 138 233 265
5 234 278 279 86 235
7 236 212 270 302 252 290 291
6 253 248 284 308 309 335
6 240 151 230 215 241 258
5 242 220 221 150 243
6 244 277 312 313 307 269
6 246 212 236 72 202 247
5 248 253 300 301 249
8 271 239 274 275 304 354 294 295
6 252 302 303 362 363 315
4 254 218 219 255
5 256 280 281 259 257
6 258 241 237 257 259 283
4 260 107 87 261
5 238 374 375 318 319
7 264 299 296 297 306 232 265
6 267 266 356 223 320 321
6 268 229 232 306 307 313
5 270 212 246 239 271
4 272 316 317 273
6 274 213 288 228 251 275
7 276 347 344 373 364 365 336
5 278 260 261 206 279
6 280 89 218 254 214 281
6 282 243 150 240 258 283
5 284 293 340 341 308
5 286 250 158 159 287
5 288 213 167 207 289
7 290 350 285 311 332 333 291
5 292 338 339 340 293
6 328 377 329 330 370 371
6 296 86 279 206 245 297
6 298 205 235 86 296 299
4 300 262 263 301
5 302 270 271 295 303
6 304 275 251 312 277 305
7 306 297 245 267 321 269 307
7 308 341 285 350 351 366 309
7 310 88 89 280 256 332 311
5 312 251 228 268 313
6 314 334 335 309 366 367
5 316 346 347 276 317
5 318 348 349 360 319
8 320 359 352 353 369 244 269 321
5 322 272 273 166 323
5 324 368 369 353 325
5 326 343 294 354 355
6 286 376 377 328 372 250
6 330 329 238 319 360 361
5 332 256 257 237 333
5 334 262 300 253 335
6 336 365 327 324 325 337
5 338 108 88 310 339
6 340 339 310 311 285 341
6 303 295 294 343 342 362
5 344 158 250 372 373
5 346 159 158 344 347
6 348 263 262 334 314 349
5 350 290 252 315 351
6 352 323 166 337 325 353
7 354 304 305 368 324 327 355
5 356 266 87 107 357
5 358 322 323 352 359
6 360 349 314 367 331 361
7 362 342 370 330 361 331 363
6 364 345 326 355 327 365
6 366 351 315 363 331 367
5 368 305 277 244 369
6 370 342 343 326 345 371
6 372 328 371 345 364 373
5 376 286 287 375 374
5 376 374 238 329 377
CELL_TYPES 190
7
7
7
7
7
7
7
7
7
7
7
7
7
7
7
7
7
7
7
7
7
7
7
7
7
7
7
7
7
7
7
7
7
7
7
7
7
7
7
7
7
7
7
7
7
7
7
7
7
7
7
7
7
7
7
7
7
7
7
7
7
7
7
7
7
7
7
7
7
7
7
7
7
7
7
7
7
7
7
7
7
7
7
7
7
7
7
7
7
7
7
7
7
7
7
7
7
7
7
7
7
7
7
7
7
7
7
7
7
7
7
7
7
7
7
7
7
7
7
7
7
7
7
7
7
7
7
7
7
7
7
7
7
7
7
7
7
7
7
7
7
7
7
7
7
7
7
7
7
7
7
7
7
7
7
7
7
7
7
7
7
7
7
7
7
7
7
7
7
7
7
7
7
7
7
7
7
7
7
7
7
7
7
7
7
7
7
7
7
7
CELL_DATA 190
SCALARS cell_division_count float
LOOKUP_TABLE default
1
0
1
0
0
0
1
0
0
1
1
1
1
1
1
1
0
1
1
1
1
1
1
0
1
1
1
1
1
1
1
1
2
4
3
1
1
0
0
1
1
0
0
0
1
2
3
0
1
0
0
1
1
1
1
1
0
0
3
0
1
2
3
1
1
1
1
1
1
1
2
2
1
1
1
1
2
1
1
1
3
1
1
2
7
1
1
1
1
1
1
1
1
1
1
1
1
1
1
1
1
1
2
3
5
2
1
3
5
2
2
2
5
3
2
4
2
3
5
5
6
3
3
6
3
4
6
9
3
5
4
4
6
5
6
6
5
4
5
9
5
5
5
7
4
4
6
4
9
5
3
4
6
6
6
7
6
6
9
5
6
7
4
7
8
8
9
6
8
7
4
7
8
9
5
6
7
7
8
3
5
9
9
9
9
7
9
9
6
8
SCALARS cell_time float
LOOKUP_TABLE default
961
2.22229e+13
981
4.48239e+13
2.67348e+11
1.25633e+10
991
2.68223e+09
9.19769e+11
981
981
971
941
991
911
951
1.22697e+06
991
961
991
991
891
931
24773.4
991
991
991
991
991
881
941
881
841
581
731
831
971
1.00108e+18
2.94533e+15
941
931
106073
2335.76
1047.34
921
821
621
1038.01
931
3689.01
1306.18
911
951
961
971
941
1.12104e+13
22156.3
411
3027.96
941
861
681
991
991
991
991
991
991
991
871
751
991
981
981
981
811
971
971
971
111
961
961
821
181
961
951
951
941
941
941
941
941
931
931
931
921
911
911
891
881
881
871
741
561
841
831
681
461
821
821
821
111
401
811
431
751
741
471
431
321
701
681
311
681
401
411
101
621
471
601
601
21
411
301
331
531
311
501
71
471
471
461
161
451
431
201
181
41
411
401
401
401
391
331
131
321
311
61
141
141
121
291
51
121
11
111
201
191
181
181
161
161
31
141
141
131
121
121
111
111
111
101
71
61
51
41
31
21
11
SCALARS cell_area float
LOOKUP_TABLE default
3.24456
3.30217
3.29417
3.35921
3.35308
3.34435
3.3255
3.37872
3.35087
3.28201
3.33729
3.28706
3.37899
3.31769
3.30788
3.33236
3.4023
3.28608
3.33862
3.38148
3.38493
3.34027
3.34178
3.37304
3.35684
3.36835
3.42192
3.39226
3.38586
3.32917
3.25212
3.30158
3.342
3.31434
3.41809
3.25442
3.35094
3.25685
3.26569
3.25314
3.24378
3.28514
3.267
3.28681
3.22702
3.29882
3.2707
3.27118
3.26708
3.25606
3.27536
3.28037
3.22195
3.26219
3.24918
3.24601
3.21382
3.22258
3.2735
3.20324
3.25197
3.31182
3.28392
3.28196
3.33817
3.29121
3.37887
3.34224
3.28517
3.35499
3.42308
3.33488
3.3515
3.28797
3.24618
3.27758
3.33546
3.34809
3.23782
3.22693
3.23074
3.26126
3.32611
3.3195
3.28488
3.22779
3.29983
3.25761
3.36223
3.29062
3.22922
3.20734
3.22171
3.30669
3.25775
3.25423
3.26583
3.32611
3.2698
3.30094
3.29383
3.27057
3.37396
3.24592
3.29252
3.25259
3.32532
3.35132
3.2868
3.28425
3.27469
3.27923
3.28249
3.28135
3.25399
3.28677
3.34523
3.37968
3.27279
3.38281
3.2666
3.33962
3.28832
3.31269
3.36823
3.26194
3.38442
3.31783
3.22647
3.26368
3.31723
3.22195
3.28299
3.35142
3.30784
3.32361
3.31353
3.23183
3.3278
3.31549
3.26725
3.27832
3.31067
3.25131
3.27857
3.31989
3.35487
3.27947
3.29177
3.3081
3.29641
3.21869
3.29961
3.3164
3.35773
3.3378
3.32782
3.27326
3.28798
3.27861
3.2967
3.36825
3.27698
3.27043
3.28992
3.26473
3.28674
3.299
3.23056
3.29664
3.28644
3.30419
3.31664
3.24659
3.27944
3.30644
3.30214
3.29676
3.33169
3.25684
3.28744
3.30112
3.34378
3.30356
3.31605
3.27538
3.30636
3.28961
3.27816
3.24081
SCALARS cell_perimeter float
LOOKUP_TABLE default
6.92445
6.91306
7.00956
7.12185
7.0727
6.85182
7.04867
7.42577
6.89755
6.96689
7.36335
6.98223
6.84254
7.14292
6.99185
6.76592
7.13681
6.95713
6.99432
7.26749
6.91124
7.11807
7.14462
7.38388
7.42027
6.89153
8.11357
6.92116
6.82396
7.00112
6.96257
6.92198
8.19577
7.02686
7.04933
7.18291
7.63245
7.46861
7.75536
7.56983
8.18275
8.51063
8.03931
7.61189
7.3442
8.59885
7.34473
7.3524
7.85632
7.52296
7.90853
8.21432
7.71992
8.00959
7.6354
7.19001
7.39136
7.35536
7.14459
7.30085
7.65413
8.4685
7.74745
7.03204
7.00578
7.15098
6.99969
6.98618
7.07558
6.89413
8.0973
6.98566
7.06295
7.12276
7.25677
7.1772
7.71326
7.14447
6.93951
7.8287
7.50193
6.78383
7.02214
8.02901
6.79712
7.91529
6.8117
7.90595
6.96015
6.974
7.73262
7.30289
7.5886
7.0264
7.85454
7.79718
7.25599
6.87196
8.06257
7.06989
7.08113
6.87852
7.25743
7.55622
6.86121
6.98019
6.80854
7.07887
7.04956
8.09609
7.59584
7.97895
7.86647
7.1306
7.19506
7.02191
6.9652
7.87928
7.52849
6.88302
7.04761
7.08559
8.15251
7.11353
7.30859
7.11391
7.07805
7.05855
7.33116
6.91237
7.19396
7.40444
7.22941
7.39776
6.95593
7.18701
7.08691
7.30089
6.83453
7.03192
7.52024
6.77192
7.39263
7.12954
7.06638
7.11017
7.55485
7.47506
6.78771
7.02156
7.00856
7.33141
7.00311
7.01275
6.93017
6.75782
7.41849
6.96005
7.16424
7.26833
7.5253
7.26036
7.26231
7.02516
6.98909
6.96229
7.28093
7.3252
6.89807
6.90555
7.75309
7.43178
6.9811
6.95469
7.29944
7.82125
7.07441
6.81602
7.17038
7.37134
7.80597
7.29213
6.84471
6.87757
6.82756
7.12094
6.78643
6.79389
7.078
6.97317
SCALARS cell_frequency_modifier float
LOOKUP_TABLE default
9.01856e+16
3.19749e+13
1.0045e+13
1.29092e+13
1.87019e+12
9.59834e+10
9.00455e+07
5.60038e+09
2.13698e+12
2.22273e+12
4.32309e+09
3.25114e+09
936220
2.87967e+07
2.22824e+10
3.17665e+11
1.61218e+09
1.76166e+07
421729
3363.41
777667
1.28622e+07
3.17683e+08
2.18528e+07
374314
15826.1
1431.69
4319.37
154067
570987
4.22412e+09
76779
3034.22
449.175
33.5896
4.07104e+06
104724
3.00611e+18
3.85822e+17
1.59598e+16
8.28389e+12
1.07875e+10
1.14367e+11
8.57683e+06
6.32074e+07
1416.08
3023.14
1.15517e+06
1.1323e+07
1.2592e+10
2.83868e+10
1.59651e+10
9.27698e+15
3.40689e+17
6.83269e+18
10000
2.82904e+15
1.2719e+10
109.539
1.42424e+09
6.49785e+14
277.899
248.748
2.9912e+10
1.19802e+08
6.36332e+07
2715.82
38626.5
1.49123e+06
14934.5
438.974
520.389
26586.5
5.08292e+11
8.25702e+12
3.7389e+09
630.574
2.29122e+07
3.48468e+08
3.84257e+18
150.465
1.54079e+17
66346.3
943.284
1.90606
2.36128e+17
3.94351e+10
2.18482e+16
40868.7
2.86596e+06
1.89175e+17
10000
1.06021e+14
4.95093e+07
6.84732e+13
7.39063e+07
5.16913e+06
1.46213e+09
4.44559e+12
9.32674e+06
1.047e+07
3.61403e+07
367.353
12826.2
6.30266
2.88875e+06
8909.42
48.6598
87.1362
12188
419.376
6702.93
3.03366
938.201
532789
202.974
1981.55
202.654
3411.25
7.19534
121.182
223.199
516.958
5.66965
68.0529
100.007
3.64624
2.1803
900.106
2537.44
58.515
456.243
3.22986
31.345
1.75337
27.4206
23.9804
110.808
21.3756
0.559569
1177.51
83.6575
170.506
165.854
8.74895
198.479
3.57511
5.28917
1.05157
14.0803
82.447
110.548
8.71898
5.23072
3.64926
1.02671
3.10375
2835.61
1.40343
5.66457
1.03925
0.789555
12.673
196.049
3.30433
106.138
1.52035
21.1632
100.46
1.13728
3.92488
2.15431
1.89298
106.234
5.22534
0.699486
3.77748
1.02333
1.35276
247.5
1.37233
0.777125
0.575449
0.991812
1.04081
79.8905
1.03408
1.17507
12.5303
107.965
SCALARS cell_area_modifier float
LOOKUP_TABLE default
100
0.703704
0.926829
0.339286
0.35514
0.383838
0.481013
0.319328
0.372549
2.53333
0.426966
1.31034
0.31405
0.520548
0.622951
0.44186
0.294574
1.65217
0.413043
0.308943
0.301587
0.404255
0.4
0.324786
0.345455
0.327586
0.290076
0.296875
0.299213
0.452381
100
0.730769
0.395833
0.567164
0.292308
100
0.368932
100
100
100
100
1.80952
100
1.35714
100
0.826087
100
100
100
100
38
3.16667
100
100
100
100
100
100
100
100
100
0.59375
2.11111
2.71429
0.417582
1.02703
0.316667
0.391753
1.72727
0.348624
0.287879
0.436782
0.358491
1.22581
100
9.5
0.431818
0.376238
100
100
100
100
0.475
0.506667
1.9
100
0.77551
100
0.336283
1.05556
100
100
100
0.644068
100
100
100
0.469136
100
0.76
0.95
100
0.322034
100
0.974359
100
0.487179
0.365385
1.40741
2
100
4.22222
2.375
2.92308
100
1.46154
0.38
0.311475
100
0.306452
100
0.408602
1.15152
0.584615
0.333333
100
0.304
0.513514
100
100
0.527778
100
2.23529
0.361905
0.633333
0.493506
0.575758
100
0.463415
0.558824
100
6.33333
0.603175
100
5.42857
0.5
0.351852
3.45455
1
0.612903
0.904762
100
0.791667
0.542857
0.342342
0.422222
0.457831
100
1.1875
4.75
0.863636
0.330435
12.6667
100
1.08571
100
1.52
0.808511
100
0.883721
1.58333
0.678571
0.535211
100
3.8
0.655172
0.716981
0.844444
0.447059
100
1.26667
0.745098
0.387755
0.690909
0.550725
19
0.666667
1.11765
7.6
100
SCALARS cell_Gaussian_modifier float
LOOKUP_TABLE default
9.01856e+14
4.54381e+13
1.08381e+13
3.80481e+13
5.26605e+12
2.50062e+11
1.872e+08
1.7538e+10
5.7361e+12
8.77393e+11
1.01251e+10
2.48114e+09
2.98112e+06
5.53199e+07
3.57692e+10
7.18927e+11
5.47293e+09
1.06627e+07
1.02103e+06
10886.8
2.57858e+06
3.1817e+07
7.94206e+08
6.72836e+07
1.08354e+06
48311.2
4935.58
14549.4
514907
1.26218e+06
4.22412e+07
105066
7665.41
791.966
114.912
40710.4
283858
3.00611e+16
3.85822e+15
1.59598e+14
8.28389e+10
5.9615e+09
1.14367e+09
6.31977e+06
632074
1714.2
30.2314
11551.7
113230
1.2592e+08
7.47021e+08
5.0416e+09
9.27698e+13
3.40689e+15
6.83269e+16
100
2.82904e+13
1.2719e+08
1.09539
1.42424e+07
6.49785e+12
468.041
117.828
1.10202e+10
2.86894e+08
6.19586e+07
8576.27
98599.2
863344
42838.3
1524.86
1191.42
74162.3
4.14659e+11
8.25702e+10
3.93568e+08
1460.28
6.08981e+07
3.48468e+06
3.84257e+16
1.50465
1.54079e+15
139677
1861.75
1.00319
2.36128e+15
5.08506e+10
2.18482e+14
121531
2.71512e+06
1.89175e+15
100
1.06021e+12
7.68697e+07
6.84732e+11
739063
51691.3
3.11664e+09
4.44559e+10
1.2272e+07
1.10211e+07
361403
1140.73
128.262
6.46852
28887.5
18287.8
133.174
61.9126
6093.99
4.19376
1587.54
1.27733
320.964
5327.89
138.877
5214.6
650.624
34.1125
23.4795
1.21182
546.251
448.937
9.69809
204.159
1.00007
11.9942
4.24584
9.00106
25.3744
110.87
4.56243
1.44494
86.6111
2.76848
55.5629
41.6502
1.10808
46.1263
1.00133
11.7751
13.2091
282.681
1.65854
1.61165
396.957
10.1608
1.53108
1.05157
22.973
91.1256
1.10548
11.0135
9.63553
10.6597
2.43167
6.77924
28.3561
1.18184
1.19254
1.20335
2.38944
1.0005
1.96049
3.04346
1.06138
1.00023
26.1755
1.0046
1.28692
2.47887
3.17477
3.53688
1.06234
1.37509
1.06764
5.26859
1.21183
3.02591
2.475
1.08342
1.04298
1.48405
1.43552
1.8899
4.20476
1.55112
1.05138
1.64872
1.07965
