# vtk DataFile Version 3.0
2D-vertex
ASCII
DATASET UNSTRUCTURED_GRID

POINTS 160 float
-0.402068 -1.1728 0
1.56927 -1.286 0
2.0325 -0.674396 0
1.71463 -0.0445101 0
-0.287482 0.244105 0
-0.828045 -0.407507 0
3.38885 -0.767596 0
3.96409 0.214165 0
3.1685 1.31346 0
2.24728 1.13326 0
1.27667 2.35921 0
-0.375933 3.02845 0
-1.35964 1.74643 0
-1.90274 1.66212 0
-2.45003 0.416436 0
-1.94755 -0.378859 0
4.95022 0.244543 0
5.54367 1.25714 0
3.98586 2.2557 0
3.45354 2.12386 0
2.48905 3.49587 0
2.25843 3.4986 0
1.22176 5.98849 0
-0.0746339 5.8635 0
-0.57263 3.84209 0
-2.49205 3.09244 0
-2.61723 2.4534 0
-3.76308 2.22413 0
-4.14736 1.40599 0
-3.51108 0.374387 0
6.46185 1.28782 0
7.48782 3.10666 0
7.00504 3.91943 0
5.00057 4.15468 0
5.46298 5.06359 0
2.91739 5.28921 0
2.1135 6.13896 0
1.35415 6.17191 0
0.932376 7.69738 0
-0.353535 7.59479 0
-0.875245 6.32552 0
-3.19385 5.43541 0
-3.80125 4.45844 0
-4.54782 4.41622 0
-4.88048 3.71024 0
-5.81502 3.58092 0
-6.03885 2.93603 0
-4.95172 1.40132 0
7.51754 4.83928 0
7.1453 5.69248 0
6.57345 5.80276 0
5.52849 7.45809 0
3.12916 7.53751 0
2.98495 8.01713 0
1.80213 8.37504 0
1.70266 9.9944 0
-0.983111 10.0124 0
-1.42115 8.70973 0
-2.69661 8.20485 0
-3.50326 6.36952 0
-4.62234 6.69037 0
-5.3511 5.82379 0
-6.19727 5.82867 0
-6.71418 4.70233 0
7.80436 6.51651 0
7.38458 7.69287 0
6.35764 8.0403 0
6.02637 9.86467 0
4.84774 10.0667 0
4.23051 11.3244 0
2.9775 11.2426 0
2.08554 12.1467 0
-0.00963395 11.9801 0
-1.16681 11.3286 0
-3.4377 11.1385 0
-3.59487 10.1907 0
-4.86534 9.70469 0
-5.10027 8.03792 0
-6.22323 7.69044 0
-6.68099 6.54509 0
7.85831 8.25716 0
7.3051 10.0851 0
6.51241 10.3431 0
6.18481 11.6018 0
4.68883 11.9338 0
4.5339 12.4214 0
2.21516 12.7341 0
1.60165 13.3847 0
0.180761 13.4337 0
-0.161519 13.096 0
-3.66116 13.2217 0
-4.25044 11.9117 0
-5.23199 11.665 0
-5.53951 10.2622 0
-6.19572 10.0153 0
-6.69609 8.26756 0
1.85284 -2.67647 0
3.96222 -2.01713 0
5.77174 -1.02328 0
7.43028 0.344768 0
8.8262 2.71541 0
9.24003 4.64341 0
9.40826 6.37923 0
9.36097 8.36651 0
8.51242 10.8496 0
7.15198 12.5576 0
5.6216 13.8205 0
2.03746 15.1646 0
-0.125604 15.2748 0
-4.16997 14.1142 0
-6.14761 12.5819 0
-7.47369 10.7918 0
-8.24714 8.35954 0
-8.29712 6.43107 0
-8.05829 4.45698 0
-7.42679 2.39591 0
-5.92807 0.279498 0
-4.31495 -0.950533 0
-2.68403 -1.85017 0
-0.81573 -2.55665 0
3.59692 14.7822 0
3.16671 13.078 0
-1.95613 14.974 0
-1.55531 13.5162 0
-0.356958 3.64942 0
1.47484 4.41633 0
-2.02081 5.22839 0
-1.53071 3.79585 0
4.34921 5.95918 0
4.41292 7.00084 0
0.195197 9.94042 0
0.47461 7.92585 0
-0.942152 6.6096 0
-2.64413 7.13562 0
5.558 7.62344 0
4.25927 9.08518 0
3.73737 9.06965 0
2.70943 10.3913 0
0.768451 11.5575 0
0.817023 10.4645 0
-1.32285 10.3901 0
-3.10372 9.79496 0
-3.24119 8.56352 0
-4.73388 7.7893 0
1.30956 1.88505 0
-0.385398 0.894874 0
6.26686 3.74823 0
5.37537 1.60594 0
4.99912 4.15758 0
3.05142 4.26012 0
-2.11571 12.9836 0
-1.97488 11.8342 0
2.98508 4.16996 0
1.28366 5.60395 0
-6.03212 10.0769 0
-5.50702 7.91206 0
-0.948459 -0.404426 0
-1.74988 -2.20341 0
0.891207 13.4092 0
0.955931 15.2197 0

CELLS 240 720
2 0 1
2 1 2
2 2 3
2 4 3
2 4 5
2 0 5
2 2 6
2 6 7
2 7 8
2 8 9
2 3 9
2 9 144
2 10 11
2 11 12
2 145 4
2 12 13
2 13 14
2 14 15
2 5 156
2 7 16
2 16 17
2 147 17
2 19 18
2 19 8
2 20 19
2 21 20
2 10 21
2 153 125
2 22 23
2 24 23
2 24 124
2 127 24
2 25 26
2 26 13
2 26 27
2 27 28
2 28 29
2 29 14
2 17 30
2 30 31
2 31 32
2 32 146
2 18 33
2 33 148
2 128 35
2 20 152
2 35 36
2 36 37
2 37 22
2 37 38
2 131 38
2 40 132
2 23 40
2 126 40
2 41 42
2 42 25
2 42 43
2 43 44
2 44 27
2 44 45
2 45 46
2 46 47
2 47 28
2 32 48
2 48 49
2 49 50
2 34 50
2 50 51
2 52 129
2 52 36
2 53 52
2 54 53
2 38 54
2 55 54
2 139 55
2 57 56
2 39 57
2 58 57
2 59 133
2 59 41
2 60 59
2 60 61
2 61 43
2 61 62
2 62 63
2 63 45
2 49 64
2 64 65
2 65 66
2 51 134
2 66 67
2 67 68
2 53 136
2 68 69
2 69 70
2 55 137
2 70 71
2 71 138
2 73 72
2 56 140
2 151 73
2 74 75
2 58 142
2 75 76
2 77 76
2 143 60
2 155 77
2 78 79
2 79 62
2 65 80
2 80 81
2 81 82
2 82 67
2 82 83
2 84 83
2 84 69
2 85 84
2 121 85
2 86 71
2 87 86
2 88 158
2 89 88
2 72 89
2 89 123
2 90 91
2 91 74
2 91 92
2 92 93
2 76 93
2 93 154
2 94 95
2 95 78
2 1 96
2 96 97
2 97 6
2 97 98
2 16 98
2 98 99
2 99 30
2 31 100
2 100 101
2 101 48
2 101 102
2 102 64
2 102 103
2 103 80
2 81 104
2 104 105
2 83 105
2 105 106
2 85 106
2 106 120
2 87 107
2 108 88
2 108 122
2 109 90
2 109 110
2 110 92
2 110 111
2 111 94
2 95 112
2 112 113
2 113 79
2 113 114
2 114 63
2 114 115
2 115 46
2 47 116
2 116 117
2 117 29
2 117 118
2 15 118
2 157 119
2 119 0
2 119 96
2 99 100
2 103 104
2 159 108
2 111 112
2 115 116
2 120 107
2 121 86
2 120 121
2 122 109
2 123 150
2 122 123
2 124 11
2 125 21
2 124 125
2 41 126
2 127 25
2 126 127
2 34 128
2 129 51
2 128 129
2 56 130
2 131 39
2 130 131
2 132 39
2 133 58
2 132 133
2 134 66
2 135 68
2 134 135
2 136 135
2 137 70
2 136 137
2 138 72
2 139 130
2 138 139
2 140 73
2 141 75
2 140 141
2 142 141
2 143 77
2 142 143
2 144 10
2 145 12
2 144 145
2 146 33
2 147 18
2 146 147
2 148 34
2 149 35
2 148 149
2 150 90
2 151 74
2 150 151
2 152 149
2 153 22
2 152 153
2 154 94
2 155 78
2 154 155
2 156 15
2 157 118
2 156 157
2 158 87
2 159 107
2 158 159

CELL_TYPES 240
3
3
3
3
3
3
3
3
3
3
3
3
3
3
3
3
3
3
3
3
3
3
3
3
3
3
3
3
3
3
3
3
3
3
3
3
3
3
3
3
3
3
3
3
3
3
3
3
3
3
3
3
3
3
3
3
3
3
3
3
3
3
3
3
3
3
3
3
3
3
3
3
3
3
3
3
3
3
3
3
3
3
3
3
3
3
3
3
3
3
3
3
3
3
3
3
3
3
3
3
3
3
3
3
3
3
3
3
3
3
3
3
3
3
3
3
3
3
3
3
3
3
3
3
3
3
3
3
3
3
3
3
3
3
3
3
3
3
3
3
3
3
3
3
3
3
3
3
3
3
3
3
3
3
3
3
3
3
3
3
3
3
3
3
3
3
3
3
3
3
3
3
3
3
3
3
3
3
3
3
3
3
3
3
3
3
3
3
3
3
3
3
3
3
3
3
3
3
3
3
3
3
3
3
3
3
3
3
3
3
3
3
3
3
3
3
3
3
3
3
3
3
3
3
3
3
3
3
3
3
3
3
3
3
3
3
3
3
3
3

CELL_DATA 240
SCALARS current_Length float
LOOKUP_TABLE default
1.97458
0.767235
0.70555
2.0228
0.846644
0.875863
1.35955
1.13787
1.35698
0.938685
1.29261
1.20187
1.78296
1.61593
0.658094
0.549604
1.36061
0.940734
1.11987
0.986596
1.17368
0.387278
0.548405
0.859065
1.6771
0.230639
1.50402
1.59241
1.30241
2.08186
0.289197
0.959192
0.65119
1.06613
1.16856
0.903893
1.21204
1.06189
0.918701
2.08825
0.945342
0.757772
2.15308
0.00324239
1.58082
0.948863
1.16974
0.760063
0.226209
1.58271
0.511613
0.291858
0.924356
1.58619
1.15039
1.89208
0.747766
0.780426
1.85933
0.943446
0.682624
1.88074
0.804382
1.05299
0.930871
0.582388
1.33397
1.95756
1.39143
1.72844
0.500824
1.23579
1.10258
1.62241
1.00266
1.37433
1.54367
1.37175
1.15109
0.984023
1.16417
1.13228
1.62066
0.846184
1.23929
1.43738
1.05517
1.24902
1.08412
0.167965
1.85421
1.19582
1.29381
1.40096
1.25567
1.08219
1.27001
1.44288
1.32799
0.508007
0.953209
0.960662
0.652087
1.36026
1.68325
1.10458
1.17549
1.23344
0.864431
0.736777
1.90981
0.833634
0.682026
1.3006
1.53237
0.7625
0.511635
1.51671
0.601543
0.894222
1.42174
0.480842
1.12617
1.45576
1.43648
1.1218
1.01207
1.43612
0.874826
0.701114
1.81798
0.746095
1.41909
2.21003
1.3748
2.06449
1.51072
2.14996
1.35174
1.39439
1.97191
1.73359
1.74396
1.60976
1.98784
1.50663
1.42901
2.18362
1.3598
1.98418
1.77221
2.24144
1.83249
1.86644
1.85508
1.02733
2.50178
1.2958
2.22776
1.49539
1.55377
1.92913
1.62014
1.98848
1.36632
2.15565
1.48934
1.48719
2.02858
1.54971
1.86259
1.64534
1.99741
1.44435
2.67126
2.7511
2.62407
2.16588
2.55232
2.59333
1.60566
1.0118
1.7576
2.37495
0.773151
1.51192
0.62126
1.20674
1.98585
1.19117
1.1912
1.51406
1.42918
1.20565
1.0436
1.1805
0.891868
2.03386
1.14763
1.07051
1.78141
0.901776
1.14442
1.95534
0.522135
0.892495
1.67437
0.88547
0.813207
1.09405
0.951396
0.630772
1.87767
1.23909
0.442776
1.68153
0.475308
1.29395
1.96299
1.32992
1.53393
2.32038
1.01785
1.03778
1.9504
1.5637
1.61985
1.15797
0
0
0
0
0
0
0
0
0
0
0
0

SCALARS edge_force float
LOOKUP_TABLE default
0.5
0.5
0.5
0.5
0.5
0.5
0.5
0.5
0.5
0.5
0.5
0.5
0.5
0.5
0.5
0.5
0.5
0.5
0.5
0.5
0.5
0.5
0.5
0.5
0.5
0.5
0.5
0.5
0.5
0.5
0.5
0.5
0.5
0.5
0.5
0.5
0.5
0.5
0.5
0.5
0.5
0.5
0.5
0.5
0.5
0.5
0.5
0.5
0.5
0.5
0.5
0.5
0.5
0.5
0.5
0.5
0.5
0.5
0.5
0.5
0.5
0.5
0.5
0.5
0.5
0.5
0.5
0.5
0.5
0.5
0.5
0.5
0.5
0.5
0.5
0.5
0.5
0.5
0.5
0.5
0.5
0.5
0.5
0.5
0.5
0.5
0.5
0.5
0.5
0.5
0.5
0.5
0.5
0.5
0.5
0.5
0.5
0.5
0.5
0.5
0.5
0.5
0.5
0.5
0.5
0.5
0.5
0.5
0.5
0.5
0.5
0.5
0.5
0.5
0.5
0.5
0.5
0.5
0.5
0.5
0.5
0.5
0.5
0.5
0.5
0.5
0.5
0.5
0.5
0.5
0.5
0.5
0.5
2
0.5
2
0.5
2
0.5
0.5
2
0.5
2
0.5
2
0.5
0.5
2
0.5
2
0.5
2
0.5
0.5
2
0.5
2
0.5
2
0.5
0.5
2
0.5
2
0.5
2
0.5
0.5
2
0.5
2
0.5
2
0.5
2
2
2
2
2
2
2
0.5
0.5
2
0.5
0.5
0.5
0.5
0.5
0.5
0.5
0.5
0.5
0.5
0.5
0.5
0.5
0.5
0.5
0.5
0.5
0.5
0.5
0.5
0.5
0.5
0.5
0.5
0.5
0.5
0.5
0.5
0.5
0.5
0.5
0.5
0.5
0.5
0.5
0.5
0.5
0.5
0.5
0.5
0.5
0.5
0.5
0.5
0
0
0
0
0
0
0
0
0
0
0
0
