# vtk DataFile Version 3.0
2D-vertex
ASCII
DATASET UNSTRUCTURED_GRID

POINTS 236 float
0.340731 -2.29443 0
3.14557 -1.90964 0
3.45774 -1.04787 0
2.4728 -0.107452 0
-0.0967246 -0.0038878 0
-0.828986 -1.31512 0
4.18718 -0.954922 0
4.69798 -0.0217709 0
3.79604 1.19081 0
2.56744 0.751276 0
1.31909 1.73184 0
-0.557914 2.32195 0
-1.356 1.15172 0
-1.71245 1.08775 0
-2.20985 -0.201699 0
-1.76741 -1.03016 0
5.31286 -0.103129 0
6.23457 1.01478 0
4.36427 2.00322 0
3.95752 1.86453 0
3.18881 2.57797 0
1.85716 2.40001 0
1.23649 5.4815 0
0.0181231 5.385 0
-0.647759 3.69719 0
-2.0948 3.14619 0
-2.16134 1.57679 0
-3.62885 1.38294 0
-4.06665 0.699458 0
-3.82086 -0.0108478 0
7.36804 1.20395 0
8.0039 2.32199 0
7.52892 3.45461 0
5.45233 3.83978 0
6.04639 4.69978 0
3.51402 5.18078 0
2.72492 6.0793 0
1.63445 6.10051 0
0.491642 8.94634 0
-1.01402 8.91148 0
-0.819208 6.16696 0
-2.64747 5.56586 0
-3.62565 4.51463 0
-4.81595 4.77287 0
-5.50615 3.92925 0
-6.96666 3.94559 0
-7.32468 3.20948 0
-5.80464 1.29808 0
8.03549 4.6436 0
7.66504 5.29102 0
7.18468 5.38533 0
6.0288 7.18578 0
3.62746 7.37999 0
3.35184 8.11355 0
1.82475 9.20585 0
2.39111 10.3581 0
-1.66958 10.4894 0
-1.83252 9.57993 0
-3.12783 8.81883 0
-3.08513 6.67822 0
-4.68022 7.57797 0
-6.10421 6.95788 0
-8.12782 6.49878 0
-8.21695 5.69966 0
8.46022 6.05921 0
8.44118 6.40735 0
6.89178 7.67297 0
6.58065 9.30162 0
5.32395 9.64666 0
5.0454 10.9238 0
4.15402 11.2571 0
3.21921 12.3743 0
-1.6188 12.9398 0
-1.71264 12.9018 0
-4.94706 12.0964 0
-4.73495 10.5498 0
-5.85582 9.86119 0
-5.87279 9.18791 0
-8.7153 7.73101 0
-8.76509 6.94739 0
9.60004 7.12455 0
9.49884 8.58083 0
8.59108 9.45446 0
9.17754 10.1139 0
8.09466 11.7206 0
7.77693 12.8688 0
2.6428 14.8942 0
2.49995 15.8815 0
-1.41155 15.9846 0
-1.74739 15.3632 0
-7.29865 13.9989 0
-7.63414 12.745 0
-8.33916 12.4404 0
-8.28764 10.7057 0
-9.347 9.68542 0
-9.43093 8.21171 0
4.04327 -3.56124 0
5.36882 -2.85531 0
6.36955 -2.24531 0
8.76035 -0.101664 0
9.86272 1.72285 0
10.7289 4.52123 0
10.9004 5.25294 0
11.2546 6.75635 0
11.2353 9.0973 0
10.9874 10.3226 0
8.89701 14.001 0
3.57386 17.5758 0
-2.21085 17.895 0
-8.16521 14.987 0
-9.6 13.326 0
-10.9889 10.2146 0
-11.1357 7.8703 0
-10.7579 6.22205 0
-10.3093 4.89725 0
-9.44852 2.63155 0
-7.63295 -0.104986 0
-5.40556 -1.93134 0
-3.07123 -3.16575 0
0.138727 -4.06587 0
6.52765 15.9864 0
5.28814 14.3037 0
-4.90647 16.9391 0
-4.1831 15.1707 0
-0.467727 3.47757 0
1.14937 3.66485 0
-2.03893 5.3964 0
-1.54865 3.71417 0
4.94559 5.72627 0
5.05324 6.79672 0
0.39683 10.6656 0
0.120383 9.28544 0
-1.40363 7.40476 0
-2.66457 7.30898 0
6.02869 7.18828 0
4.69125 8.83379 0
3.93708 8.89989 0
3.30043 10.3344 0
2.16956 12.0306 0
1.86089 11.0605 0
-2.17845 11.0269 0
-3.79047 10.1993 0
-3.59954 9.02102 0
-4.58379 8.40955 0
1.3969 1.36753 0
-0.130186 0.206516 0
6.72482 3.40807 0
5.94781 1.39883 0
5.45007 3.84311 0
3.49388 4.16817 0
-4.68298 14.5514 0
-4.1347 12.8167 0
3.30804 4.04187 0
1.71615 4.51384 0
-8.29199 10.2085 0
-7.32421 8.83484 0
-0.963126 -1.37208 0
-1.3954 -3.7839 0
-0.218086 16.2574 0
-0.17695 18.2223 0
1.29883 -1.87835 0
1.36571 -0.63458 0
2.3997 8.21461 0
1.32629 6.88655 0
5.63839 13.3612 0
4.06369 11.8755 0
0.416064 15.8434 0
0.542398 12.5541 0
-3.06761 -0.415126 0
-3.85602 -2.80249 0
-5.05281 2.72509 0
-5.86073 1.94688 0
-6.24035 -1.34575 0
-5.06282 0.662225 0
0.309181 7.2887 0
-0.733386 6.78669 0
8.723 8.90419 0
7.48489 7.52136 0
6.10332 0.454252 0
7.81158 -1.11426 0
1.89419 -4.11364 0
1.85299 -2.28385 0
-6.85762 2.23753 0
-8.45524 0.889329 0
-6.09434 5.66769 0
-7.37222 5.02981 0
7.91417 3.82066 0
10.2992 2.89402 0
-10.4613 11.7119 0
-8.29362 10.7016 0
10.1131 12.4788 0
8.73088 11.518 0
-3.33099 3.52516 0
-4.1847 2.56226 0
-9.88412 3.75766 0
-7.47695 4.54129 0
-3.93376 6.69748 0
-4.96927 5.25747 0
-6.71428 8.62632 0
-6.63139 7.27396 0
7.2172 9.87153 0
7.05704 10.8557 0
-0.103072 11.9764 0
-0.119602 11.0726 0
4.8082 17.0078 0
4.24588 15.7834 0
2.64018 14.8952 0
1.6718 12.576 0
5.89653 11.4792 0
6.36085 13.0122 0
-6.67146 10.5378 0
-6.39349 11.7968 0
-1.15008 14.3563 0
-0.0944838 14.2855 0
-3.09085 14.9773 0
-2.73665 13.4974 0
6.21938 13.2921 0
7.63292 15.141 0
-2.72505 15.4283 0
-3.5132 17.4693 0
-6.46341 16.1898 0
-5.6362 14.6642 0
1.43515 18.1571 0
1.2907 16.3777 0
5.06627 14.3431 0
3.3969 13.3271 0
-6.05025 14.0552 0
-5.52733 12.3271 0
0.501275 14.8704 0
1.89835 14.266 0
-3.67686 12.6849 0
-3.08465 10.9934 0
2.44069 14.726 0
2.60294 12.1725 0
4.19103 17.2918 0
2.75844 14.9584 0

CELLS 354 1062
2 160 0
2 1 2
2 2 3
2 161 4
2 4 5
2 5 0
2 2 6
2 6 7
2 7 8
2 8 9
2 3 9
2 9 144
2 10 11
2 11 12
2 145 4
2 12 13
2 13 14
2 15 14
2 5 156
2 7 16
2 17 178
2 147 17
2 19 18
2 19 8
2 20 19
2 21 20
2 10 21
2 153 125
2 23 22
2 24 23
2 24 124
2 127 24
2 26 25
2 26 13
2 27 26
2 28 27
2 29 28
2 14 168
2 30 17
2 30 31
2 32 31
2 32 146
2 18 33
2 33 148
2 128 35
2 20 152
2 35 36
2 37 36
2 22 37
2 37 163
2 38 131
2 175 40
2 40 23
2 126 40
2 42 41
2 25 192
2 43 42
2 43 44
2 193 27
2 45 44
2 46 45
2 47 171
2 173 47
2 48 186
2 48 49
2 49 50
2 34 50
2 50 51
2 52 129
2 36 52
2 52 53
2 53 162
2 54 38
2 55 54
2 139 55
2 57 56
2 39 57
2 58 57
2 59 133
2 41 59
2 59 196
2 61 60
2 197 43
2 199 61
2 62 63
2 195 185
2 49 64
2 64 65
2 177 65
2 51 134
2 67 66
2 68 67
2 53 136
2 69 68
2 70 69
2 55 137
2 165 70
2 233 71
2 73 72
2 140 56
2 73 215
2 74 75
2 58 142
2 76 75
2 77 76
2 60 143
2 77 198
2 78 79
2 79 62
2 65 80
2 80 81
2 81 176
2 67 200
2 82 83
2 83 191
2 69 208
2 84 85
2 164 216
2 71 225
2 206 86
2 158 88
2 89 88
2 212 89
2 214 218
2 90 91
2 91 211
2 91 92
2 92 93
2 93 210
2 189 93
2 94 95
2 95 78
2 96 1
2 96 97
2 97 6
2 97 98
2 16 98
2 179 99
2 99 30
2 31 100
2 187 101
2 101 48
2 101 102
2 102 64
2 102 103
2 103 80
2 81 104
2 104 105
2 83 105
2 105 190
2 85 106
2 217 120
2 107 87
2 88 108
2 219 122
2 109 90
2 109 110
2 92 110
2 110 188
2 111 94
2 95 112
2 112 113
2 113 79
2 113 114
2 63 114
2 114 194
2 115 46
2 116 47
2 116 172
2 117 29
2 169 118
2 118 15
2 157 119
2 0 119
2 119 180
2 99 100
2 103 104
2 159 108
2 111 112
2 183 116
2 120 204
2 121 224
2 120 121
2 122 220
2 150 123
2 123 122
2 124 11
2 125 21
2 124 125
2 41 126
2 127 25
2 126 127
2 34 128
2 129 51
2 128 129
2 203 130
2 131 39
2 130 131
2 39 132
2 133 58
2 132 133
2 134 66
2 135 68
2 134 135
2 136 135
2 137 70
2 136 137
2 207 138
2 130 139
2 139 138
2 140 73
2 75 141
2 231 140
2 142 141
2 143 77
2 142 143
2 144 10
2 145 12
2 144 145
2 146 33
2 147 18
2 146 147
2 148 34
2 149 35
2 148 149
2 150 221
2 151 74
2 151 150
2 152 149
2 153 22
2 152 153
2 94 154
2 155 78
2 154 155
2 156 15
2 157 118
2 156 157
2 87 223
2 107 222
2 159 158
2 181 160
2 161 3
2 160 161
2 162 54
2 163 174
2 162 163
2 164 121
2 71 165
2 165 164
2 158 166
2 202 167
2 166 228
2 168 29
2 169 117
2 168 169
2 44 170
2 171 182
2 170 171
2 172 117
2 173 28
2 172 173
2 174 38
2 175 132
2 174 175
2 176 82
2 177 66
2 176 177
2 178 16
2 179 98
2 178 179
2 180 96
2 181 1
2 180 181
2 182 46
2 183 115
2 182 183
2 61 184
2 185 63
2 184 185
2 186 32
2 187 100
2 186 187
2 188 111
2 189 154
2 188 189
2 190 106
2 191 84
2 190 191
2 192 42
2 193 170
2 192 193
2 194 115
2 195 45
2 194 195
2 196 60
2 197 184
2 196 197
2 198 155
2 199 62
2 198 199
2 200 82
2 201 84
2 200 201
2 72 202
2 203 56
2 202 203
2 204 234
2 235 205
2 205 204
2 87 206
2 167 207
2 206 232
2 208 201
2 209 85
2 208 209
2 210 76
2 227 74
2 210 211
2 72 212
2 213 167
2 212 213
2 123 214
2 215 230
2 214 215
2 216 209
2 217 106
2 216 217
2 218 89
2 219 108
2 218 219
2 220 109
2 221 226
2 220 221
2 222 159
2 223 166
2 222 223
2 224 205
2 225 86
2 224 225
2 226 90
2 227 211
2 226 227
2 228 213
2 229 207
2 228 229
2 230 151
2 231 141
2 230 231
2 232 229
2 233 138
2 232 233
2 234 107
2 235 86
2 234 235

CELL_TYPES 354
3
3
3
3
3
3
3
3
3
3
3
3
3
3
3
3
3
3
3
3
3
3
3
3
3
3
3
3
3
3
3
3
3
3
3
3
3
3
3
3
3
3
3
3
3
3
3
3
3
3
3
3
3
3
3
3
3
3
3
3
3
3
3
3
3
3
3
3
3
3
3
3
3
3
3
3
3
3
3
3
3
3
3
3
3
3
3
3
3
3
3
3
3
3
3
3
3
3
3
3
3
3
3
3
3
3
3
3
3
3
3
3
3
3
3
3
3
3
3
3
3
3
3
3
3
3
3
3
3
3
3
3
3
3
3
3
3
3
3
3
3
3
3
3
3
3
3
3
3
3
3
3
3
3
3
3
3
3
3
3
3
3
3
3
3
3
3
3
3
3
3
3
3
3
3
3
3
3
3
3
3
3
3
3
3
3
3
3
3
3
3
3
3
3
3
3
3
3
3
3
3
3
3
3
3
3
3
3
3
3
3
3
3
3
3
3
3
3
3
3
3
3
3
3
3
3
3
3
3
3
3
3
3
3
3
3
3
3
3
3
3
3
3
3
3
3
3
3
3
3
3
3
3
3
3
3
3
3
3
3
3
3
3
3
3
3
3
3
3
3
3
3
3
3
3
3
3
3
3
3
3
3
3
3
3
3
3
3
3
3
3
3
3
3
3
3
3
3
3
3
3
3
3
3
3
3
3
3
3
3
3
3
3
3
3
3
3
3
3
3
3
3
3
3
3
3
3
3
3
3
3
3
3
3
3
3
3
3
3
3
3
3
3
3
3
3
3
3
3
3
3
3
3
3

CELL_DATA 354
SCALARS current_Length float
LOOKUP_TABLE default
1.04454
0.916568
1.3618
1.59263
1.50184
1.52554
0.735341
1.06381
1.51124
1.30486
0.863928
1.32286
1.96758
1.41646
0.213048
0.362152
1.38205
0.939203
0.145734
0.620238
0.575687
0.479303
0.429745
0.6928
1.04877
1.34348
0.857888
1.0208
1.22218
1.81441
0.283978
0.901053
1.57081
0.663823
1.48026
0.811671
0.75163
0.883914
1.14914
1.28621
1.22818
0.80545
2.13467
0.00402428
1.53198
1.46874
1.19583
1.09068
0.735899
0.844282
0.502817
0.625639
1.14568
1.44273
1.43594
1.29297
1.21798
1.08999
1.30375
1.4606
0.818554
0.651218
0.97704
0.831841
0.745913
0.489534
1.32879
2.13955
1.54047
1.58315
0.783631
0.957482
1.35813
1.28396
0.880046
0.923978
1.05677
1.50236
0.758114
1.19537
0.848846
1.55315
0.508275
0.614674
0.80407
0.499622
1.10564
0.348652
1.46817
0.00250482
1.6581
1.30321
0.980221
1.30712
0.951662
0.909628
0.625021
1.1045
0.101226
0.74016
1.18462
1.56111
0.513215
1.31549
0.673488
0.837152
1.01168
0.785203
0.779339
1.36284
1.45979
0.840531
0.854389
0.882494
1.47345
1.01634
1.19137
0.585079
0.969239
0.00278267
1.22426
0.706313
1.17076
0.580743
1.29799
1.56149
0.768017
1.73547
1.62488
0.00724643
1.4761
0.86209
1.87979
1.5018
2.2378
1.172
2.38862
1.38763
1.90871
1.953
1.68298
2.6962
0.751531
2.56992
1.54457
1.69501
1.81159
1.25012
1.82186
2.3267
1.59263
1.39149
2.00599
2.07091
1.49074
1.31427
2.19494
1.54075
1.8295
1.72508
1.73858
1.69099
2.12069
1.39868
2.24095
1.21633
2.20106
2.30463
1.86516
2.48989
0.864788
2.50214
1.55982
1.78292
1.75611
2.13168
2.34103
2.06006
2.34885
1.29028
1.99996
0.225338
2.08987
1.72788
0.795852
1.91064
1.15914
1.44941
1.6279
0.631694
0.78796
1.75222
1.50514
1.05028
1.07584
0.657522
1.19446
1.40762
1.55627
1.57932
1.26457
0.989875
1.03008
2.12048
0.757058
1.25697
1.56942
0.738432
1.51638
1.018
1.93194
1.00742
0.906826
1.19363
1.50577
1.15873
0.372522
1.54791
1.91832
1.34373
1.69496
2.15424
1.04378
1.01281
1.98301
0.959867
1.08566
1.81933
0.224697
1.08001
1.66039
1.17756
1.77583
1.68034
0.873947
1.78621
2.45025
1.3071
2.21631
1.96531
0.686677
1.22618
1.24557
1.14592
1.09373
1.70762
1.00552
0.980784
2.16492
0.757343
0.866207
0.976767
0.854878
1.77762
2.51417
1.28666
1.03839
1.12177
1.01971
0.996869
2.32778
1.66764
0.911727
1.15714
0.565862
0.612181
1.8561
0.967212
1.83268
2.31913
2.21894
1.34566
1.83026
1.07836
2.00547
2.09047
1.29022
1.07809
1.42824
0.53142
1.24988
2.55874
1.58758
0.493116
2.39158
1.94834
0.667694
1.68333
1.03241
0.883248
1.28686
1.20743
0.784386
2.53151
1.15433
1.19753
1.77367
0.644591
1.6853
1.35489
1.43579
1.35083
0.997078
1.79596
1.65606
0.903976
1.35875
1.83315
1.34736
0.996195
1.12961
0.972752
1.31742
1.42333
1.60177
1.05976
0.624423
1.28935
1.49201
1.84481
1.05797
1.10924
1.24269
1.52162
0.313654
1.70222
2.32732
0.979825
1.37017
2.18785
2.08392
0.736426
1.73539
1.61342
1.02491
1.78527
1.6575
1.73911
1.95425
1.24968
1.01555
1.80555
0.834862
1.70503
1.5222
0.476435
1.06244
1.79215
0
0
0
0
0
0

SCALARS edge_force float
LOOKUP_TABLE default
0.5
0.5
0.5
0.5
0.5
0.5
0.5
0.5
0.5
0.5
0.5
0.5
0.5
0.5
0.5
0.5
0.5
0.5
0.5
0.5
0.5
0.5
0.5
0.5
0.5
0.5
0.5
0.5
0.5
0.5
0.5
0.5
0.5
0.5
0.5
0.5
0.5
0.5
0.5
0.5
0.5
0.5
0.5
0.5
0.5
0.5
0.5
0.5
0.5
0.5
0.5
0.5
0.5
0.5
0.5
0.5
0.5
0.5
0.5
0.5
0.5
0.5
0.5
0.5
0.5
0.5
0.5
0.5
0.5
0.5
0.5
0.5
0.5
0.5
0.5
0.5
0.5
0.5
0.5
0.5
0.5
0.5
0.5
0.5
0.5
0.5
0.5
0.5
0.5
0.5
0.5
0.5
0.5
0.5
0.5
0.5
0.5
0.5
0.5
0.5
0.5
0.5
0.5
0.5
0.5
0.5
0.5
0.5
0.5
0.5
0.5
0.5
0.5
0.5
0.5
0.5
0.5
0.5
0.5
0.5
0.5
0.5
0.5
0.5
0.5
0.5
0.5
0.5
0.5
0.5
0.5
0.5
0.5
2
0.5
2
0.5
2
0.5
0.5
2
0.5
2
0.5
2
0.5
0.5
2
0.5
2
0.5
2
0.5
0.5
2
0.5
2
0.5
2
0.5
0.5
2
0.5
2
0.5
2
0.5
0.5
2
0.5
2
0.5
2
0.5
2
2
2
2
2
2
2
0.5
0.5
2
0.5
0.5
0.5
0.5
0.5
0.5
0.5
0.5
0.5
0.5
0.5
0.5
0.5
0.5
0.5
0.5
0.5
0.5
0.5
0.5
0.5
0.5
0.5
0.5
0.5
0.5
0.5
0.5
0.5
0.5
0.5
0.5
0.5
0.5
0.5
0.5
0.5
0.5
0.5
0.5
0.5
0.5
0.5
0.5
0.5
0.5
0.5
0.5
0.5
0.5
0.5
2
0.5
0.5
2
0.5
0.5
0.5
0.5
0.5
0.5
0.5
0.5
0.5
0.5
0.5
0.5
0.5
0.5
2
0.5
0.5
0.5
0.5
2
0.5
0.5
0.5
0.5
0.5
0.5
0.5
0.5
0.5
2
0.5
2
0.5
0.5
0.5
2
0.5
0.5
0.5
0.5
0.5
2
0.5
2
0.5
0.5
2
0.5
0.5
0.5
0.5
0.5
2
0.5
0.5
0.5
0.5
0.5
0.5
0.5
0.5
0.5
0.5
0.5
0.5
0.5
0.5
2
0.5
0.5
0.5
0.5
0.5
0.5
0.5
0.5
0.5
0.5
0.5
0.5
0.5
0.5
0.5
0.5
0.5
0.5
2
0.5
0.5
2
0.5
2
0.5
0.5
2
0.5
0.5
0.5
0.5
0.5
0.5
0.5
0.5
0.5
0.5
0.5
0.5
0.5
0.5
0
0
0
0
0
0
