# vtk DataFile Version 3.0
2D-vertex
ASCII
DATASET UNSTRUCTURED_GRID

POINTS 202 float
0.401246 -2.52635 0
3.32394 -2.01124 0
3.59104 -1.16763 0
2.59756 -0.295229 0
-0.0605321 -0.265327 0
-0.778119 -1.53239 0
4.38182 -1.02534 0
4.83926 -0.0426866 0
3.91148 1.04617 0
2.65544 0.524421 0
1.36753 1.3946 0
-0.568004 1.97505 0
-1.3546 0.831205 0
-1.7657 0.764467 0
-2.24905 -0.417236 0
-1.82357 -1.22963 0
5.46292 -0.0728768 0
6.35549 1.18093 0
4.4457 1.92288 0
4.03435 1.74863 0
3.27414 2.36409 0
1.90426 2.1048 0
1.20788 5.07241 0
-0.0595971 4.91918 0
-0.671626 3.25188 0
-2.14764 2.8142 0
-2.25079 1.3129 0
-3.7518 1.16723 0
-4.16185 0.588649 0
-3.94197 -0.130843 0
7.48729 1.49019 0
8.03197 2.78755 0
7.4298 3.79348 0
5.42218 3.87619 0
5.99654 4.88189 0
3.4637 5.03632 0
2.63435 5.81647 0
1.58397 5.74753 0
0.266754 8.5764 0
-1.13383 8.33367 0
-0.895835 5.67412 0
-2.83943 5.20993 0
-3.71038 4.3783 0
-4.88637 4.71104 0
-5.53492 4.03297 0
-6.9338 4.202 0
-7.3239 3.5912 0
-5.93148 1.37465 0
7.82796 5.24492 0
7.42996 5.76086 0
7.06852 5.76881 0
5.64281 7.37479 0
3.42531 7.25807 0
3.05304 7.97681 0
1.42236 8.95578 0
1.79322 10.0963 0
-1.39524 10.6603 0
-1.89102 8.99357 0
-3.1543 8.45745 0
-3.22018 6.46048 0
-4.94594 7.87895 0
-6.10113 7.38264 0
-7.37784 7.6856 0
-8.07617 6.39388 0
8.09432 6.70667 0
7.97568 7.1357 0
6.23899 8.07717 0
5.77082 10.0411 0
4.92395 10.2417 0
4.63219 10.9288 0
3.23435 11.0816 0
1.95681 12.0709 0
-0.656531 12.3884 0
-1.40405 11.7649 0
-3.54508 11.8256 0
-3.79053 10.8386 0
-4.70811 10.644 0
-5.33575 9.25046 0
-7.27863 8.34924 0
-7.48625 7.8661 0
8.92154 8.13545 0
8.23728 9.79017 0
6.96722 10.7176 0
7.03397 11.0496 0
5.38439 12.0774 0
4.87023 12.997 0
2.22463 13.7037 0
1.89846 14.0618 0
-0.798408 14.4859 0
-1.208 13.9918 0
-3.99299 14.0393 0
-4.57556 12.9622 0
-5.28775 12.8769 0
-5.69834 11.8606 0
-7.47088 10.7137 0
-8.04115 9.25535 0
4.24881 -3.57316 0
5.60227 -2.76349 0
6.63699 -2.03468 0
8.93059 0.419287 0
9.84708 2.43645 0
10.3254 5.48021 0
10.3724 6.47674 0
10.3602 8.26809 0
9.54266 10.7162 0
8.6929 11.9963 0
5.79566 14.5442 0
2.49797 15.9774 0
-1.20288 16.3496 0
-4.63032 15.317 0
-6.32094 14.2716 0
-8.80633 11.705 0
-9.69801 9.46388 0
-9.85264 7.86027 0
-9.82286 6.2549 0
-9.34391 3.29994 0
-7.74985 0.18613 0
-5.51225 -1.90171 0
-3.08359 -3.27525 0
0.230281 -4.20395 0
4.17191 15.3866 0
3.52129 13.9217 0
-2.8173 16.0065 0
-2.26759 14.2119 0
-0.499169 3.05176 0
1.17068 3.29873 0
-2.08461 4.95478 0
-1.6677 3.2789 0
4.8404 5.73135 0
4.81107 6.88348 0
-0.108213 10.5313 0
-0.0290645 8.78787 0
-1.52341 6.85781 0
-2.90794 6.83938 0
5.64014 7.60232 0
4.14231 8.9292 0
3.54817 8.88597 0
2.6896 10.2085 0
0.857064 11.6055 0
0.765094 11.0447 0
-1.53047 10.8099 0
-3.28356 10.3334 0
-3.6125 8.80568 0
-4.75867 8.48223 0
1.43902 1.10332 0
-0.0844461 -0.131499 0
6.64015 3.61794 0
6.09749 1.4639 0
5.41639 3.87971 0
3.53394 4.02738 0
-2.63328 13.8266 0
-2.41921 12.3328 0
3.28934 3.82964 0
1.70512 4.18884 0
-6.71939 10.8401 0
-5.85431 9.26784 0
-0.951174 -1.60254 0
-1.37615 -3.91592 0
0.50017 14.4581 0
0.964321 16.3233 0
1.40666 -2.06795 0
1.44117 -0.889031 0
2.17439 7.96475 0
1.21478 6.51431 0
4.09253 13.0112 0
3.03477 11.6228 0
0.920777 13.8969 0
0.215708 12.3325 0
-3.12523 -0.606368 0
-3.95493 -2.85101 0
-5.15797 2.6809 0
-5.94022 2.04345 0
-6.40707 -1.20082 0
-5.16227 0.612427 0
0.246284 6.80872 0
-0.827792 6.22332 0
7.73379 9.8198 0
6.83206 8.01935 0
6.26759 0.600041 0
8.01885 -0.760347 0
2.06879 -4.21709 0
1.9715 -2.45476 0
-6.92101 2.43678 0
-8.54432 1.36316 0
-6.04616 5.86735 0
-7.28368 5.3979 0
7.8104 4.28815 0
10.1402 3.75078 0
-7.63597 13.119 0
-6.3626 11.7523 0
7.18111 13.5842 0
6.13591 12.0894 0
-3.44336 3.26851 0
-4.2664 2.44152 0
-9.62784 4.67015 0
-7.43964 4.98539 0
-4.05986 6.57623 0
-5.06173 5.44149 0
-5.68507 9.26217 0
-6.50717 7.479 0
6.28328 10.3309 0
5.26653 11.8974 0

CELLS 303 909
2 160 0
2 1 2
2 2 3
2 161 4
2 4 5
2 5 0
2 2 6
2 6 7
2 7 8
2 8 9
2 3 9
2 9 144
2 10 11
2 11 12
2 145 4
2 12 13
2 13 14
2 15 14
2 5 156
2 7 16
2 17 178
2 147 17
2 19 18
2 19 8
2 20 19
2 21 20
2 10 21
2 153 125
2 23 22
2 24 23
2 24 124
2 127 24
2 26 25
2 26 13
2 27 26
2 28 27
2 29 28
2 14 168
2 30 17
2 30 31
2 32 31
2 32 146
2 18 33
2 33 148
2 128 35
2 20 152
2 35 36
2 37 36
2 22 37
2 37 163
2 38 131
2 175 40
2 40 23
2 126 40
2 42 41
2 25 192
2 43 42
2 43 44
2 193 27
2 45 44
2 46 45
2 47 171
2 173 47
2 48 186
2 48 49
2 49 50
2 34 50
2 50 51
2 52 129
2 36 52
2 52 53
2 53 162
2 54 38
2 55 54
2 139 55
2 57 56
2 39 57
2 58 57
2 59 133
2 41 59
2 59 196
2 61 60
2 197 43
2 199 61
2 62 63
2 195 185
2 49 64
2 64 65
2 177 65
2 51 134
2 67 66
2 68 67
2 53 136
2 69 68
2 70 69
2 55 137
2 165 70
2 138 71
2 73 72
2 56 140
2 151 73
2 74 75
2 58 142
2 75 76
2 77 76
2 60 143
2 77 198
2 78 79
2 79 62
2 65 80
2 80 81
2 81 176
2 67 200
2 82 83
2 83 191
2 201 69
2 85 84
2 85 164
2 71 86
2 86 87
2 158 88
2 88 89
2 89 72
2 89 123
2 90 91
2 91 74
2 91 92
2 93 92
2 76 93
2 189 93
2 94 95
2 95 78
2 96 1
2 96 97
2 97 6
2 97 98
2 16 98
2 179 99
2 99 30
2 31 100
2 187 101
2 101 48
2 101 102
2 102 64
2 102 103
2 103 80
2 81 104
2 104 105
2 83 105
2 105 190
2 106 85
2 106 120
2 87 107
2 108 88
2 108 122
2 109 90
2 109 110
2 92 110
2 110 188
2 111 94
2 95 112
2 112 113
2 113 79
2 113 114
2 63 114
2 114 194
2 115 46
2 116 47
2 116 172
2 117 29
2 169 118
2 118 15
2 157 119
2 0 119
2 119 180
2 99 100
2 103 104
2 159 108
2 111 112
2 183 116
2 120 107
2 121 86
2 120 121
2 122 109
2 123 150
2 122 123
2 124 11
2 125 21
2 124 125
2 41 126
2 127 25
2 126 127
2 34 128
2 129 51
2 128 129
2 56 130
2 131 39
2 130 131
2 39 132
2 133 58
2 132 133
2 134 66
2 135 68
2 134 135
2 136 135
2 137 70
2 136 137
2 167 138
2 139 130
2 138 139
2 140 73
2 141 75
2 140 141
2 142 141
2 143 77
2 142 143
2 144 10
2 145 12
2 144 145
2 146 33
2 147 18
2 146 147
2 148 34
2 149 35
2 148 149
2 150 90
2 151 74
2 150 151
2 152 149
2 153 22
2 152 153
2 94 154
2 155 78
2 154 155
2 156 15
2 157 118
2 156 157
2 87 166
2 159 107
2 158 159
2 181 160
2 161 3
2 160 161
2 162 54
2 163 174
2 162 163
2 164 121
2 165 71
2 164 165
2 166 158
2 167 72
2 166 167
2 168 29
2 169 117
2 168 169
2 44 170
2 171 182
2 170 171
2 172 117
2 173 28
2 172 173
2 174 38
2 175 132
2 174 175
2 176 82
2 177 66
2 176 177
2 178 16
2 179 98
2 178 179
2 180 96
2 181 1
2 180 181
2 182 46
2 183 115
2 182 183
2 61 184
2 185 63
2 184 185
2 186 32
2 187 100
2 186 187
2 188 111
2 189 154
2 188 189
2 190 106
2 191 84
2 190 191
2 192 42
2 193 170
2 192 193
2 194 115
2 195 45
2 194 195
2 196 60
2 197 184
2 196 197
2 198 155
2 199 62
2 198 199
2 200 82
2 201 84
2 200 201

CELL_TYPES 303
3
3
3
3
3
3
3
3
3
3
3
3
3
3
3
3
3
3
3
3
3
3
3
3
3
3
3
3
3
3
3
3
3
3
3
3
3
3
3
3
3
3
3
3
3
3
3
3
3
3
3
3
3
3
3
3
3
3
3
3
3
3
3
3
3
3
3
3
3
3
3
3
3
3
3
3
3
3
3
3
3
3
3
3
3
3
3
3
3
3
3
3
3
3
3
3
3
3
3
3
3
3
3
3
3
3
3
3
3
3
3
3
3
3
3
3
3
3
3
3
3
3
3
3
3
3
3
3
3
3
3
3
3
3
3
3
3
3
3
3
3
3
3
3
3
3
3
3
3
3
3
3
3
3
3
3
3
3
3
3
3
3
3
3
3
3
3
3
3
3
3
3
3
3
3
3
3
3
3
3
3
3
3
3
3
3
3
3
3
3
3
3
3
3
3
3
3
3
3
3
3
3
3
3
3
3
3
3
3
3
3
3
3
3
3
3
3
3
3
3
3
3
3
3
3
3
3
3
3
3
3
3
3
3
3
3
3
3
3
3
3
3
3
3
3
3
3
3
3
3
3
3
3
3
3
3
3
3
3
3
3
3
3
3
3
3
3
3
3
3
3
3
3
3
3
3
3
3
3
3
3
3
3
3
3
3
3
3
3
3
3
3
3
3
3
3
3
3
3
3
3
3
3

CELL_DATA 303
SCALARS current_Length float
LOOKUP_TABLE default
1.10499
0.884885
1.32215
1.62608
1.45615
1.54236
0.803484
1.08391
1.43052
1.36009
0.821692
1.34715
2.0207
1.3882
0.135949
0.416484
1.27673
0.917067
0.18673
0.62439
0.587506
0.382922
0.446734
0.713123
0.978115
1.39421
0.890202
1.03823
1.2767
1.77609
0.264171
0.996436
1.50484
0.732186
1.50806
0.709151
0.752341
0.896362
1.17329
1.40707
1.17238
0.808932
2.18379
0.0067704
1.54219
1.46563
1.13862
1.05265
0.772811
0.851021
0.363633
0.5534
1.1266
1.38947
1.20423
1.37305
1.22216
0.938292
1.37427
1.40906
0.724743
0.668852
1.0829
0.956936
0.651618
0.361528
1.39132
2.14751
1.43549
1.64433
0.809426
0.878733
1.21629
1.19935
1.39871
1.73894
1.00439
1.37233
0.490973
1.30722
0.84762
1.25729
0.751206
1.31216
1.4684
0.441005
1.15582
0.445137
1.44524
0.227552
2.01892
0.870312
1.03525
0.746444
1.40617
0.903366
0.576822
1.1942
0.973405
0.201613
1.16323
1.01708
0.575513
0.937984
1.52834
0.631681
0.518846
0.525863
0.210556
1.37628
1.79062
0.504362
1.37445
0.338618
1.37392
1.37301
1.05358
0.777827
1.6546
0.484362
1.29888
0.64176
1.69566
1.0822
1.22451
1.53421
0.717282
1.09606
1.56869
0.673039
1.56589
1.18426
1.8152
1.57715
2.12383
1.26563
2.28629
1.49091
1.7972
1.84876
1.73932
2.50852
0.997639
2.28964
1.79139
1.44477
1.60046
1.53647
1.91003
2.19251
1.80287
1.82926
2.00722
1.90711
1.65048
1.42785
1.98769
1.73576
1.74868
1.66316
1.66993
1.61105
2.36639
1.60564
1.75221
1.59671
2.0409
2.17233
1.93046
2.3668
0.969131
2.40254
1.63205
1.68629
1.83855
2.21561
2.58098
2.16736
2.412
1.42007
1.77512
1.31486
1.60285
1.93971
0.531197
1.87691
1.07891
1.40128
1.68802
0.796781
0.668056
1.72696
1.43465
0.966007
1.15251
1.29349
1.19448
1.74521
1.52641
1.63672
1.38465
0.764275
1.52762
2.00102
0.59571
1.02909
1.57676
0.969499
1.01304
0.568273
0.963323
0.715691
1.81668
1.56274
0.960833
1.19093
0.299923
1.59376
1.96106
1.24505
1.71438
2.22134
1.15799
1.01138
1.88824
1.37624
1.23485
1.50906
0.314535
1.01388
1.62443
0.762038
1.69486
1.79453
0.948755
1.82368
2.35209
0.991489
1.57218
1.92213
0.684586
1.29993
1.17942
1.24405
1.01226
1.73914
1.07487
1.16741
1.7455
0.701296
0.874025
1.71595
0.945086
1.82384
2.39307
1.40363
1.05673
1.00909
1.13665
1.00071
2.1994
1.76779
0.941527
1.22325
1.18056
0.595879
2.01364
1.04895
1.87975
2.21756
2.27314
1.42331
1.76501
1.22271
2.09534
1.94622
1.51629
1.2728
1.32357
0.624139
1.34662
2.39098
1.83552
0.979493
1.86799
1.68555
0.75162
1.824
1.14146
0.92315
1.16675
1.39932
0.932508
2.2108
1.5755
1.0726
1.51373
0
0
0
0
0
0

SCALARS edge_force float
LOOKUP_TABLE default
0.5
0.5
0.5
0.5
0.5
0.5
0.5
0.5
0.5
0.5
0.5
0.5
0.5
0.5
0.5
0.5
0.5
0.5
0.5
0.5
0.5
0.5
0.5
0.5
0.5
0.5
0.5
0.5
0.5
0.5
0.5
0.5
0.5
0.5
0.5
0.5
0.5
0.5
0.5
0.5
0.5
0.5
0.5
0.5
0.5
0.5
0.5
0.5
0.5
0.5
0.5
0.5
0.5
0.5
0.5
0.5
0.5
0.5
0.5
0.5
0.5
0.5
0.5
0.5
0.5
0.5
0.5
0.5
0.5
0.5
0.5
0.5
0.5
0.5
0.5
0.5
0.5
0.5
0.5
0.5
0.5
0.5
0.5
0.5
0.5
0.5
0.5
0.5
0.5
0.5
0.5
0.5
0.5
0.5
0.5
0.5
0.5
0.5
0.5
0.5
0.5
0.5
0.5
0.5
0.5
0.5
0.5
0.5
0.5
0.5
0.5
0.5
0.5
0.5
0.5
0.5
0.5
0.5
0.5
0.5
0.5
0.5
0.5
0.5
0.5
0.5
0.5
0.5
0.5
0.5
0.5
0.5
0.5
2
0.5
2
0.5
2
0.5
0.5
2
0.5
2
0.5
2
0.5
0.5
2
0.5
2
0.5
2
0.5
0.5
2
0.5
2
0.5
2
0.5
0.5
2
0.5
2
0.5
2
0.5
0.5
2
0.5
2
0.5
2
0.5
2
2
2
2
2
2
2
0.5
0.5
2
0.5
0.5
0.5
0.5
0.5
0.5
0.5
0.5
0.5
0.5
0.5
0.5
0.5
0.5
0.5
0.5
0.5
0.5
0.5
0.5
0.5
0.5
0.5
0.5
0.5
0.5
0.5
0.5
0.5
0.5
0.5
0.5
0.5
0.5
0.5
0.5
0.5
0.5
0.5
0.5
0.5
0.5
0.5
0.5
0.5
0.5
0.5
0.5
0.5
0.5
0.5
2
0.5
0.5
2
0.5
0.5
0.5
0.5
0.5
0.5
0.5
0.5
0.5
0.5
0.5
0.5
0.5
0.5
2
0.5
0.5
0.5
0.5
2
0.5
0.5
0.5
0.5
0.5
0.5
0.5
0.5
0.5
2
0.5
2
0.5
0.5
0.5
2
0.5
0.5
0.5
0.5
0.5
2
0.5
2
0.5
0.5
2
0.5
0.5
0.5
0.5
0.5
2
0.5
0.5
0.5
0.5
0.5
0
0
0
0
0
0
