# vtk DataFile Version 3.0
2D-vertex
ASCII
DATASET UNSTRUCTURED_GRID

POINTS 266 float
0.347237 -2.10339 0
3.05059 -1.75695 0
3.38134 -0.869808 0
2.38735 0.0991979 0
-0.109209 0.20452 0
-0.830931 -1.15959 0
4.05517 -0.795244 0
4.58682 0.117337 0
3.68218 1.40551 0
2.49438 1.00087 0
1.27316 2.03516 0
-0.559273 2.59207 0
-1.35029 1.37602 0
-1.67773 1.30654 0
-2.16095 -0.0752162 0
-1.69506 -0.903813 0
5.18692 0.0129886 0
6.08744 1.05318 0
4.24167 2.19993 0
3.85983 2.08143 0
3.07563 2.84994 0
1.80956 2.70163 0
1.20482 5.85513 0
0.0133259 5.75686 0
-0.645953 4.00921 0
-2.09294 3.35466 0
-2.10281 1.74147 0
-3.54822 1.49139 0
-3.99153 0.724397 0
-3.71995 0.0269326 0
7.20616 1.18072 0
7.85883 2.17354 0
7.46951 3.38027 0
5.35673 3.99478 0
5.92381 4.76508 0
3.44313 5.49029 0
2.68858 6.45987 0
1.65018 6.52267 0
0.531088 9.29736 0
-1.10743 9.04332 0
-0.800051 6.48652 0
-2.69256 5.74611 0
-3.63811 4.59234 0
-4.84394 4.76579 0
-5.50998 3.80843 0
-6.99588 3.70059 0
-7.3092 2.89827 0
-5.70949 1.1842 0
7.97985 4.38431 0
7.61483 5.14885 0
7.05857 5.32224 0
6.05812 7.24191 0
3.68961 7.70618 0
3.46692 8.482 0
2.00652 9.59269 0
2.61863 10.7204 0
-1.97387 10.259 0
-1.99637 9.63283 0
-3.30757 8.64242 0
-3.16872 6.76374 0
-4.95615 7.51269 0
-6.34103 6.70084 0
-8.36755 5.99149 0
-8.35423 5.24744 0
8.46322 5.79484 0
8.4786 6.02659 0
6.94342 7.55826 0
6.9438 9.12289 0
5.66563 9.75296 0
5.64943 10.9162 0
4.84858 11.4492 0
4.45321 12.6403 0
-1.84217 12.4914 0
-2.44693 12.0213 0
-6.06804 11.8823 0
-5.68796 10.2303 0
-6.56585 9.53075 0
-6.4885 8.88771 0
-9.14101 7.05385 0
-9.07512 6.35053 0
9.76961 6.6118 0
9.86897 7.91004 0
9.01909 8.84314 0
9.79904 9.42953 0
9.05872 11.0753 0
9.03513 12.0701 0
4.70224 15.4309 0
3.81194 17.486 0
-2.7186 17.961 0
-3.37662 17.206 0
-9.04072 13.033 0
-8.99829 12.0069 0
-9.60853 11.5361 0
-9.21593 9.95281 0
-10.1233 8.8092 0
-9.96223 7.42508 0
3.96337 -3.4592 0
5.2491 -2.79696 0
6.20152 -2.24878 0
8.58578 -0.277709 0
9.75918 1.42477 0
10.7958 4.06587 0
10.9778 4.60462 0
11.4791 5.96309 0
11.7825 8.18197 0
11.755 9.25192 0
10.6337 13.004 0
4.61145 19.2982 0
-3.21403 19.8146 0
-10.5013 13.8409 0
-11.2519 12.1379 0
-11.899 9.05312 0
-11.643 6.77495 0
-11.0439 5.2779 0
-10.468 4.11976 0
-9.46338 2.12515 0
-7.51701 -0.380047 0
-5.2824 -2.02089 0
-2.99547 -3.13033 0
0.155971 -3.95378 0
9.28242 15.1324 0
7.04072 13.8656 0
-7.51359 17.6741 0
-6.28325 15.969 0
-0.476871 3.80673 0
1.09487 3.99069 0
-2.07253 5.61239 0
-1.52072 4.00085 0
4.84828 5.91801 0
5.05844 6.98954 0
0.340382 10.7881 0
0.189471 9.57774 0
-1.36113 7.6038 0
-2.79856 7.39581 0
6.05774 7.24438 0
4.89877 9.03229 0
4.1185 9.20002 0
3.69519 10.5994 0
2.20545 11.3601 0
2.1946 11.3331 0
-2.49926 10.6335 0
-4.38056 9.88328 0
-4.10477 8.87804 0
-4.95644 8.20803 0
1.3617 1.6126 0
-0.152794 0.474889 0
6.67058 3.41996 0
5.76677 1.53346 0
5.35701 3.99404 0
3.3682 4.43407 0
-6.94904 14.3539 0
-5.67301 12.2506 0
3.24292 4.35534 0
1.68595 4.85747 0
-9.13955 9.54093 0
-7.95335 8.37027 0
-0.937378 -1.20886 0
-1.32926 -3.70478 0
1.24933 17.8951 0
0.946993 19.8607 0
1.26116 -1.69991 0
1.32914 -0.401794 0
2.51623 8.64125 0
1.36628 7.29693 0
7.00241 13.0191 0
4.93826 12.0969 0
2.66474 17.5535 0
0.561315 12.6365 0
-3.0074 -0.320417 0
-3.7236 -2.81931 0
-4.99521 2.69971 0
-5.80059 1.81391 0
-6.08203 -1.51528 0
-4.98512 0.633724 0
0.403092 7.6733 0
-0.733694 7.08429 0
9.04687 8.40889 0
7.66271 7.24713 0
5.93863 0.502663 0
7.65347 -1.18795 0
1.85032 -3.99131 0
1.81467 -2.10775 0
-6.80813 2.03207 0
-8.35698 0.504046 0
-6.19453 5.48625 0
-7.45821 4.6862 0
7.82726 3.66216 0
10.2517 2.50274 0
-11.6799 10.5501 0
-9.21779 9.95112 0
11.3605 11.4233 0
9.66967 10.7225 0
-3.30197 3.66493 0
-4.14462 2.59803 0
-9.966 3.13196 0
-7.51414 4.20474 0
-4.11571 6.71188 0
-5.01495 5.18171 0
-7.21853 8.23873 0
-6.96653 6.97471 0
7.69498 9.55795 0
7.74431 10.4104 0
-0.534693 12.1161 0
-0.362775 11.2054 0
8.45804 16.3241 0
6.86627 15.2525 0
4.4838 15.5671 0
1.65396 12.1747 0
6.75634 11.3105 0
7.63882 12.6466 0
-7.5227 10.0876 0
-7.49214 11.3311 0
-1.35031 14.8201 0
0.858437 14.4811 0
-5.40665 16.0309 0
-3.79289 12.5832 0
7.62682 12.7212 0
9.83518 14.2921 0
-4.08882 17.4318 0
-4.64368 19.3997 0
-9.62567 15.2382 0
-7.73194 13.9312 0
2.61948 19.8065 0
2.70886 17.5969 0
6.69782 14.1272 0
5.1056 13.8827 0
-7.77446 13.5979 0
-6.72485 12.0503 0
1.65705 14.7429 0
2.55827 13.7103 0
-4.53369 11.9069 0
-3.9668 10.4078 0
3.38022 13.8085 0
4.08098 12.6225 0
6.87813 17.813 0
5.93778 16.0116 0
-2.17098 14.041 0
-3.04546 14.2896 0
0.11316 16.8425 0
-0.19768 15.2579 0
-5.86784 13.7878 0
-3.93974 13.4947 0
-8.88303 16.2581 0
-7.02393 15.1278 0
2.7969 15.981 0
3.78204 15.2495 0
-1.00388 14.7084 0
-0.226758 12.5202 0
-1.50582 17.9422 0
-1.1116 19.9861 0
0.656891 16.9298 0
1.8556 15.603 0
-1.75243 16.0473 0
-1.02501 17.2535 0
-5.14831 16.8745 0
-6.43867 18.4808 0
-3.04023 16.2231 0
-3.51756 15.5893 0
-5.24288 14.1566 0
-4.98248 15.5195 0
6.33162 18.2245 0
4.58687 16.7303 0
-0.31792 17.3498 0
0.205063 19.8829 0
4.79149 15.0883 0
3.74304 13.1944 0

CELLS 399 1197
2 160 0
2 1 2
2 2 3
2 161 4
2 4 5
2 5 0
2 2 6
2 6 7
2 7 8
2 8 9
2 3 9
2 9 144
2 10 11
2 11 12
2 145 4
2 12 13
2 13 14
2 15 14
2 5 156
2 7 16
2 17 178
2 147 17
2 19 18
2 19 8
2 20 19
2 21 20
2 10 21
2 153 125
2 23 22
2 24 23
2 24 124
2 127 24
2 26 25
2 26 13
2 27 26
2 28 27
2 29 28
2 14 168
2 30 17
2 30 31
2 32 31
2 32 146
2 18 33
2 33 148
2 128 35
2 20 152
2 35 36
2 37 36
2 22 37
2 37 163
2 38 131
2 175 40
2 40 23
2 126 40
2 42 41
2 25 192
2 43 42
2 43 44
2 193 27
2 45 44
2 46 45
2 47 171
2 173 47
2 48 186
2 48 49
2 49 50
2 34 50
2 50 51
2 52 129
2 36 52
2 52 53
2 53 162
2 54 38
2 55 54
2 139 55
2 57 56
2 39 57
2 58 57
2 59 133
2 41 59
2 59 196
2 61 60
2 197 43
2 199 61
2 62 63
2 195 185
2 49 64
2 64 65
2 177 65
2 51 134
2 67 66
2 68 67
2 53 136
2 69 68
2 70 69
2 55 137
2 165 70
2 233 71
2 73 72
2 140 56
2 215 73
2 74 75
2 58 142
2 76 75
2 77 76
2 60 143
2 77 198
2 78 79
2 79 62
2 65 80
2 80 81
2 81 176
2 67 200
2 82 83
2 83 191
2 69 208
2 84 85
2 164 216
2 71 225
2 86 206
2 250 158
2 88 89
2 252 256
2 254 214
2 90 91
2 91 211
2 91 92
2 92 93
2 93 210
2 189 93
2 94 95
2 95 78
2 96 1
2 96 97
2 97 6
2 97 98
2 16 98
2 179 99
2 99 30
2 31 100
2 187 101
2 101 48
2 101 102
2 102 64
2 102 103
2 103 80
2 81 104
2 104 105
2 83 105
2 105 190
2 85 106
2 217 120
2 107 87
2 108 88
2 255 122
2 109 90
2 109 110
2 92 110
2 110 188
2 111 94
2 95 112
2 112 113
2 113 79
2 113 114
2 63 114
2 114 194
2 115 46
2 116 47
2 116 172
2 117 29
2 169 118
2 118 15
2 157 119
2 0 119
2 119 180
2 99 100
2 103 104
2 249 108
2 111 112
2 183 116
2 120 204
2 121 224
2 120 121
2 122 242
2 123 243
2 122 123
2 124 11
2 125 21
2 124 125
2 41 126
2 127 25
2 126 127
2 34 128
2 129 51
2 128 129
2 203 130
2 131 39
2 130 131
2 39 132
2 133 58
2 132 133
2 134 66
2 135 68
2 134 135
2 136 135
2 137 70
2 136 137
2 207 138
2 130 139
2 139 138
2 140 73
2 75 141
2 231 140
2 142 141
2 143 77
2 142 143
2 144 10
2 145 12
2 144 145
2 146 33
2 147 18
2 146 147
2 148 34
2 149 35
2 148 149
2 221 150
2 151 74
2 150 240
2 152 149
2 153 22
2 152 153
2 94 154
2 155 78
2 154 155
2 156 15
2 157 118
2 156 157
2 87 223
2 107 222
2 158 159
2 181 160
2 161 3
2 160 161
2 162 54
2 163 174
2 162 163
2 164 121
2 71 165
2 165 164
2 166 158
2 247 167
2 244 166
2 168 29
2 169 117
2 168 169
2 44 170
2 171 182
2 170 171
2 172 117
2 173 28
2 172 173
2 174 38
2 175 132
2 174 175
2 176 82
2 177 66
2 176 177
2 178 16
2 179 98
2 178 179
2 180 96
2 181 1
2 180 181
2 182 46
2 183 115
2 182 183
2 61 184
2 185 63
2 184 185
2 186 32
2 187 100
2 186 187
2 188 111
2 189 154
2 188 189
2 190 106
2 191 84
2 190 191
2 192 42
2 193 170
2 192 193
2 194 115
2 195 45
2 194 195
2 196 60
2 197 184
2 196 197
2 198 155
2 199 62
2 198 199
2 200 82
2 201 84
2 200 201
2 72 202
2 203 56
2 202 203
2 204 234
2 235 205
2 205 204
2 261 206
2 167 207
2 206 245
2 208 201
2 209 85
2 208 209
2 210 76
2 227 74
2 210 211
2 236 72
2 167 213
2 239 213
2 214 123
2 230 215
2 241 237
2 216 209
2 217 106
2 216 217
2 89 218
2 219 108
2 218 219
2 220 109
2 221 226
2 220 221
2 222 159
2 223 166
2 222 223
2 224 205
2 225 264
2 224 225
2 226 90
2 227 211
2 226 227
2 213 228
2 229 207
2 228 229
2 151 230
2 231 141
2 230 231
2 229 232
2 233 138
2 265 233
2 234 260
2 86 235
2 235 234
2 236 212
2 237 257
2 237 236
2 248 88
2 246 239
2 239 238
2 240 151
2 241 215
2 240 258
2 242 220
2 243 150
2 242 243
2 251 244
2 245 232
2 244 245
2 212 246
2 247 202
2 246 247
2 248 253
2 263 249
2 249 248
2 238 250
2 251 228
2 250 251
2 212 252
2 253 262
2 252 253
2 218 254
2 255 219
2 254 255
2 256 89
2 259 214
2 256 257
2 258 241
2 259 257
2 258 259
2 260 107
2 261 87
2 260 261
2 262 238
2 263 159
2 262 263
2 264 86
2 265 232
2 264 265

CELL_TYPES 399
3
3
3
3
3
3
3
3
3
3
3
3
3
3
3
3
3
3
3
3
3
3
3
3
3
3
3
3
3
3
3
3
3
3
3
3
3
3
3
3
3
3
3
3
3
3
3
3
3
3
3
3
3
3
3
3
3
3
3
3
3
3
3
3
3
3
3
3
3
3
3
3
3
3
3
3
3
3
3
3
3
3
3
3
3
3
3
3
3
3
3
3
3
3
3
3
3
3
3
3
3
3
3
3
3
3
3
3
3
3
3
3
3
3
3
3
3
3
3
3
3
3
3
3
3
3
3
3
3
3
3
3
3
3
3
3
3
3
3
3
3
3
3
3
3
3
3
3
3
3
3
3
3
3
3
3
3
3
3
3
3
3
3
3
3
3
3
3
3
3
3
3
3
3
3
3
3
3
3
3
3
3
3
3
3
3
3
3
3
3
3
3
3
3
3
3
3
3
3
3
3
3
3
3
3
3
3
3
3
3
3
3
3
3
3
3
3
3
3
3
3
3
3
3
3
3
3
3
3
3
3
3
3
3
3
3
3
3
3
3
3
3
3
3
3
3
3
3
3
3
3
3
3
3
3
3
3
3
3
3
3
3
3
3
3
3
3
3
3
3
3
3
3
3
3
3
3
3
3
3
3
3
3
3
3
3
3
3
3
3
3
3
3
3
3
3
3
3
3
3
3
3
3
3
3
3
3
3
3
3
3
3
3
3
3
3
3
3
3
3
3
3
3
3
3
3
3
3
3
3
3
3
3
3
3
3
3
3
3
3
3
3
3
3
3
3
3
3
3
3
3
3
3
3
3
3
3
3
3
3
3
3
3
3
3
3
3
3
3
3
3
3
3
3
3
3
3
3
3
3
3
3
3
3
3
3
3
3
3
3
3
3
3
3
3
3
3
3
3

CELL_DATA 399
SCALARS current_Length float
LOOKUP_TABLE default
0.999025
0.94679
1.38816
1.56091
1.54327
1.50958
0.677943
1.05615
1.57409
1.25484
0.908001
1.28731
1.91519
1.45069
0.273859
0.334721
1.46382
0.950593
0.117297
0.6091
0.570278
0.577484
0.399807
0.698869
1.09799
1.27473
0.85552
1.04914
1.19554
1.86787
0.263788
0.874807
1.61322
0.608158
1.46689
0.885891
0.748475
0.881251
1.12597
1.18814
1.26797
0.79992
2.11302
0.00079094
1.46881
1.51467
1.22859
1.0403
0.802468
0.824669
0.441948
0.60144
1.0927
1.5438
1.49173
1.2482
1.21823
1.16625
1.25711
1.4898
0.861326
0.636273
0.909804
0.738095
0.847204
0.582659
1.26416
2.16472
1.54508
1.59855
0.807146
0.963935
1.5047
1.28312
0.745104
0.626625
1.06664
1.64322
0.732486
1.12352
0.948412
1.6053
0.449712
0.682828
0.744178
0.484698
1.06634
0.232257
1.46813
0.00250221
1.56463
1.42502
0.969597
1.16337
0.962016
1.08334
0.653808
0.372659
0.765943
0.64519
1.45851
1.69522
0.831294
1.1225
0.647671
0.695338
0.976796
0.706395
0.793453
1.41745
1.30204
0.961614
0.868072
0.975795
1.29941
1.17503
0.995023
0.691812
1.40332
0.2574
1.13254
1.0015
1.29974
0.882265
1.02703
1.65082
0.770735
1.63125
1.69859
0.00250628
1.39346
0.901222
1.93153
1.44626
2.33074
1.09891
2.47891
1.30297
2.00758
2.04255
1.6551
2.83385
0.568671
2.78203
1.448
1.82841
1.93277
1.0703
1.96401
2.2069
1.85136
1.00587
1.98074
1.91865
1.34397
1.66911
1.86104
1.75009
1.6445
1.7924
1.80212
1.61246
2.24205
1.29345
2.39575
1.10803
2.28872
2.39039
1.82973
2.57582
0.791775
2.57846
1.50595
1.86025
1.69477
2.06768
2.23954
2.10941
2.29251
1.2195
1.44902
0.431268
2.57488
1.9699
1.1208
2.10263
1.21746
1.47392
1.58247
0.634284
0.86314
1.70339
1.57671
1.03104
1.09194
0.817675
1.40269
1.21968
1.46171
1.34652
1.4524
0.939654
1.05235
2.13069
0.798091
1.43269
1.46197
0.983737
1.93266
0.029119
1.3888
1.35266
1.4848
1.04239
1.67606
1.08363
0.431741
1.49868
1.89422
1.43409
1.66437
2.09184
0.956954
1.05887
2.03691
0.889697
0.540066
1.2204
0.147961
1.10761
1.63594
1.22603
1.773
1.66659
0.81678
1.76246
2.5265
1.10864
2.0558
1.98874
0.687542
1.17081
1.2999
1.07937
1.03411
1.76906
0.847406
0.728407
2.26079
1.45603
0.796611
1.57804
0.7927
1.75137
2.5995
1.22239
1.03089
1.1972
0.946074
0.997715
2.41276
1.6291
0.814595
1.28032
0.435139
0.783699
1.80709
0.897134
1.7982
2.40808
2.17901
1.28474
1.8839
1.00069
1.96268
2.17573
1.22339
1.05727
1.49565
0.455462
1.18516
2.68741
1.51295
0.417587
2.53394
1.73982
0.705505
1.83027
0.986446
0.856646
1.35954
1.12529
0.723029
2.67628
1.16088
1.21825
1.77484
0.746497
1.7116
1.2889
1.50474
1.473
0.853906
1.36027
1.86847
0.926796
2.17093
1.1993
1.91887
1.16783
1.18623
0.770288
1.33647
1.51065
1.60124
1.10707
0.677952
1.2439
1.58415
1.86832
1.31107
0.87878
1.00309
1.19653
0.0756068
1.51548
2.71003
0.747125
1.48863
2.04468
1.64897
0.335961
2.30094
1.67336
0.0618741
2.2114
1.13783
1.59986
1.61088
1.38656
1.05167
1.86999
0.840454
1.7821
1.37057
1.19005
0.668064
1.60267
0.827794
2.26082
1.37756
0.684095
1.36519
2.03209
1.13158
1.38276
0.909133
1.21292
0.975652
1.61477
1.54952
0.923256
0.725651
1.26162
0.777588
2.17569
1.01437
1.49593
1.22706
0.363995
0.508064
2.32214
0.839952
1.32071
2.0816
0.550701
0.882707
1.78812
1.29141
0.71362
1.4085
1.19713
2.01652
2.06044
1.0389
0.664358
0.793404
1.46162
1.46657
1.38758
2.02778
1.08237
2.29709
0.665708
0.742261
2.58649
3.32844
0
0

SCALARS edge_force float
LOOKUP_TABLE default
0.5
0.5
0.5
0.5
0.5
0.5
0.5
0.5
0.5
0.5
0.5
0.5
0.5
0.5
0.5
0.5
0.5
0.5
0.5
0.5
0.5
0.5
0.5
0.5
0.5
0.5
0.5
0.5
0.5
0.5
0.5
0.5
0.5
0.5
0.5
0.5
0.5
0.5
0.5
0.5
0.5
0.5
0.5
0.5
0.5
0.5
0.5
0.5
0.5
0.5
0.5
0.5
0.5
0.5
0.5
0.5
0.5
0.5
0.5
0.5
0.5
0.5
0.5
0.5
0.5
0.5
0.5
0.5
0.5
0.5
0.5
0.5
0.5
0.5
0.5
0.5
0.5
0.5
0.5
0.5
0.5
0.5
0.5
0.5
0.5
0.5
0.5
0.5
0.5
0.5
0.5
0.5
0.5
0.5
0.5
0.5
0.5
0.5
0.5
0.5
0.5
0.5
0.5
0.5
0.5
0.5
0.5
0.5
0.5
0.5
0.5
0.5
0.5
0.5
0.5
0.5
0.5
0.5
0.5
0.5
0.5
0.5
0.5
0.5
0.5
0.5
0.5
0.5
0.5
0.5
0.5
0.5
0.5
2
0.5
2
0.5
2
0.5
0.5
2
0.5
2
0.5
2
0.5
0.5
2
0.5
2
0.5
2
0.5
0.5
2
0.5
2
0.5
2
0.5
0.5
2
0.5
2
0.5
2
0.5
0.5
2
0.5
2
0.5
2
0.5
2
2
2
2
2
2
2
0.5
0.5
2
0.5
0.5
0.5
0.5
0.5
0.5
0.5
0.5
0.5
0.5
0.5
0.5
0.5
0.5
0.5
0.5
0.5
0.5
0.5
0.5
0.5
0.5
0.5
0.5
0.5
0.5
0.5
0.5
0.5
0.5
0.5
0.5
0.5
0.5
0.5
0.5
0.5
0.5
0.5
0.5
0.5
0.5
0.5
0.5
0.5
0.5
0.5
0.5
0.5
0.5
0.5
2
0.5
0.5
2
0.5
0.5
0.5
0.5
0.5
0.5
0.5
0.5
0.5
0.5
0.5
0.5
0.5
0.5
2
0.5
0.5
0.5
0.5
2
0.5
0.5
0.5
0.5
0.5
0.5
0.5
0.5
0.5
2
0.5
2
0.5
0.5
0.5
2
0.5
0.5
0.5
0.5
0.5
2
0.5
2
0.5
0.5
2
0.5
0.5
0.5
0.5
0.5
2
0.5
0.5
0.5
0.5
0.5
0.5
0.5
0.5
0.5
0.5
0.5
0.5
0.5
0.5
2
0.5
0.5
0.5
0.5
0.5
0.5
0.5
0.5
0.5
0.5
0.5
0.5
0.5
0.5
0.5
0.5
0.5
0.5
2
0.5
0.5
2
0.5
2
0.5
0.5
2
0.5
0.5
0.5
0.5
0.5
0.5
0.5
0.5
0.5
0.5
0.5
0.5
0.5
0.5
0.5
0.5
0.5
2
0.5
0.5
0.5
0.5
0.5
0.5
0.5
0.5
0.5
0.5
0.5
2
0.5
0.5
0.5
0.5
0.5
0.5
0.5
0.5
0.5
2
0.5
0.5
0.5
0.5
0.5
0.5
0.5
0.5
2
0.5
0.5
0.5
0.5
0.5
0.5
0.5
2
0.5
0.5
0.5
2
0.5
0
0
0
