# vtk DataFile Version 2.0
2D-vertex
ASCII
DATASET UNSTRUCTURED_GRID
POINTS 242 float
0.351231 -2.23338 0
3.1269 -1.85841 0
3.44509 -0.987769 0
2.46039 -0.0412258 0
-0.0897703 0.0623771 0
-0.820476 -1.26533 0
4.15708 -0.900731 0
4.67655 0.0290229 0
3.7769 1.26165 0
2.55912 0.832644 0
1.32522 1.82155 0
-0.537473 2.40283 0
-1.33769 1.21304 0
-1.69694 1.14444 0
-2.18777 -0.168377 0
-1.74031 -0.991393 0
5.28312 -0.0593352 0
6.19892 1.03388 0
4.34134 2.07657 0
3.94555 1.94514 0
3.17885 2.6676 0
1.86866 2.49706 0
1.2642 5.58681 0
0.0364693 5.48062 0
-0.616613 3.76696 0
-2.0868 3.18002 0
-2.13633 1.6125 0
-3.60981 1.39981 0
-4.04676 0.698148 0
-3.79384 -0.00515491 0
7.32683 1.20102 0
7.97061 2.2762 0
7.52328 3.43793 0
5.44215 3.90478 0
6.02999 4.74278 0
3.51983 5.3026 0
2.74448 6.21506 0
1.68678 6.24391 0
0.523308 9.0116 0
-1.04001 8.85239 0
-0.780735 6.22577 0
-2.67206 5.57239 0
-3.63022 4.5005 0
-4.84861 4.73871 0
-5.52208 3.87916 0
-7.00182 3.86387 0
-7.34293 3.12166 0
-5.78865 1.25943 0
8.03149 4.56034 0
7.65861 5.25694 0
7.15725 5.37743 0
6.04357 7.24156 0
3.68267 7.51521 0
3.4084 8.28835 0
1.9255 9.32924 0
2.47364 10.5404 0
-1.79394 10.312 0
-1.88983 9.48343 0
-3.19277 8.63884 0
-3.11502 6.64063 0
-4.80213 7.51468 0
-6.21104 6.85242 0
-8.23841 6.36796 0
-8.30397 5.57849 0
8.46944 5.9738 0
8.46648 6.28198 0
6.89895 7.6574 0
6.71642 9.27036 0
5.42499 9.736 0
5.26727 10.9738 0
4.38647 11.4179 0
3.86007 12.5225 0
-1.23145 12.6574 0
-2.04585 12.0625 0
-5.31747 12.0629 0
-5.10271 10.4125 0
-6.11989 9.77273 0
-6.11969 9.07508 0
-8.87392 7.58522 0
-8.89896 6.80417 0
9.6724 6.94759 0
9.65576 8.34068 0
8.76457 9.2355 0
9.42866 9.86886 0
8.4886 11.4957 0
8.30954 12.578 0
3.26427 15.2113 0
2.5064 16.2026 0
-1.8706 16.9806 0
-2.62143 16.1168 0
-7.70355 13.9186 0
-7.98623 12.6597 0
-8.68241 12.3279 0
-8.5668 10.5845 0
-9.57611 9.52281 0
-9.6107 8.04648 0
4.02896 -3.52413 0
5.34239 -2.83134 0
6.32789 -2.24093 0
8.71561 -0.15601 0
9.84328 1.62699 0
10.7698 4.37058 0
10.9481 5.02896 0
11.3578 6.47251 0
11.4665 8.76657 0
11.3143 9.92628 0
9.63747 13.6494 0
3.42432 18.1566 0
-2.19151 18.3468 0
-8.63256 14.8735 0
-9.97685 13.1566 0
-11.2381 9.99468 0
-11.3012 7.64757 0
-10.8695 6.01555 0
-10.3824 4.71187 0
-9.46849 2.49151 0
-7.60535 -0.187389 0
-5.36585 -1.96126 0
-3.03929 -3.15565 0
0.153372 -4.02774 0
7.71797 15.7374 0
6.06008 14.2078 0
-5.65063 16.9872 0
-4.69715 15.2066 0
-0.450708 3.56769 0
1.16132 3.75861 0
-2.03333 5.40834 0
-1.52941 3.77302 0
4.93506 5.80835 0
5.07611 6.90066 0
0.35053 10.5859 0
0.165851 9.31046 0
-1.3594 7.38615 0
-2.72264 7.24709 0
6.04336 7.24406 0
4.74992 8.97003 0
4.01657 9.06532 0
3.42455 10.5234 0
2.00174 11.4667 0
1.93652 11.1538 0
-2.223 10.6842 0
-4.04068 10.027 0
-3.82965 8.88695 0
-4.7354 8.29041 0
1.40496 1.44497 0
-0.125288 0.285861 0
6.72664 3.42232 0
5.89911 1.45205 0
5.4409 3.90818 0
3.48387 4.26891 0
-5.11317 14.5737 0
-4.52167 12.7179 0
3.31022 4.15298 0
1.74093 4.62597 0
-8.54803 10.0769 0
-7.52758 8.72172 0
-0.948413 -1.3212 0
-1.36548 -3.75767 0
-0.103891 16.8388 0
-0.211718 18.5984 0
1.29722 -1.82035 0
1.36451 -0.561665 0
2.48843 8.39016 0
1.38629 7.00652 0
6.2171 13.2692 0
4.39125 12.0672 0
1.06289 16.246 0
0.00863622 12.64 0
-3.04784 -0.39317 0
-3.81044 -2.80872 0
-5.05227 2.70155 0
-5.85502 1.89986 0
-6.19642 -1.39766 0
-5.04616 0.645348 0
0.396777 7.37877 0
-0.707355 6.81668 0
8.8487 8.73482 0
7.5581 7.44457 0
6.06108 0.475416 0
7.77228 -1.13326 0
1.89073 -4.07126 0
1.85053 -2.22592 0
-6.86106 2.17195 0
-8.43906 0.77958 0
-6.1705 5.59278 0
-7.43483 4.92492 0
7.89814 3.77227 0
10.3003 2.76677 0
-10.7706 11.5061 0
-8.56873 10.5829 0
10.6401 12.0942 0
9.1226 11.2284 0
-3.32669 3.54241 0
-4.17494 2.55343 0
-9.92821 3.59384 0
-7.52532 4.44609 0
-4.02121 6.64368 0
-5.00663 5.19961 0
-6.89959 8.52484 0
-6.78214 7.17448 0
7.39308 9.77953 0
7.32937 10.7056 0
-0.337101 12.3341 0
-0.258016 11.0105 0
6.45092 16.8488 0
5.41339 15.5542 0
2.93329 15.2381 0
1.05384 12.4975 0
6.22636 11.4619 0
6.88041 12.9119 0
-6.98153 10.4613 0
-6.72421 11.751 0
-1.72692 14.59 0
-0.139917 14.415 0
-4.08497 15.1978 0
-3.4751 12.9208 0
6.81553 13.103 0
8.57682 14.864 0
-3.46124 16.1951 0
-4.11921 17.7275 0
-7.04754 16.152 0
-6.08634 14.6298 0
1.43819 18.5628 0
1.42199 16.4958 0
5.56779 14.422 0
4.23982 13.8223 0
-6.45066 14.0298 0
-5.87545 12.2882 0
1.00093 14.9189 0
1.80457 14.0982 0
-4.05964 12.5377 0
-3.52972 10.5872 0
2.28092 14.14 0
3.22748 12.458 0
4.33577 17.8815 0
4.04655 16.0628 0
-1.88507 14.2469 0
-3.27051 14.0699 0
-0.625635 16.4942 0
-0.707958 14.8395 0
-4.91488 13.9516 0
-3.31556 13.8168 0
CELLS 122 805
5 0 160 161 4 5
6 6 7 8 9 3 2
6 144 145 4 161 3 9
8 12 13 14 15 156 5 4 145
8 7 16 178 17 147 18 19 8
7 8 19 20 21 10 144 9
6 23 24 124 125 153 22
8 25 26 13 12 11 124 24 127
7 26 27 28 29 168 14 13
6 31 32 146 147 17 30
7 18 33 148 149 152 20 19
5 20 152 153 125 21
7 22 37 163 174 175 40 23
5 24 23 40 126 127
5 26 25 192 193 27
7 28 27 193 170 171 47 173
9 186 48 49 50 34 148 33 146 32
5 129 52 36 35 128
6 36 52 53 162 163 37
6 38 54 55 139 130 131
7 40 175 132 133 59 41 126
6 42 41 59 196 197 43
7 44 43 197 184 185 195 45
8 49 64 65 177 66 134 51 50
7 51 134 135 136 53 52 129
6 53 136 137 55 54 162
8 55 137 70 165 71 233 138 139
7 57 56 140 231 141 142 58
7 59 133 58 142 143 60 196
6 61 60 143 77 198 199
5 65 80 81 176 177
6 67 200 201 208 69 68
7 69 208 209 216 164 165 70
6 71 225 86 206 232 233
6 73 72 236 237 241 215
5 210 211 91 92 93
8 77 76 210 93 189 154 155 198
5 96 97 6 2 1
5 97 98 16 7 6
5 179 99 30 17 178
4 48 186 187 101
5 101 102 64 49 48
5 102 103 80 65 64
6 81 104 105 83 82 176
4 190 191 83 105
5 216 217 120 121 164
5 219 122 123 214 218
5 109 110 92 91 90
5 189 93 92 110 188
5 112 113 79 78 95
5 113 114 63 62 79
5 63 114 194 195 185
4 47 116 172 173
5 169 118 15 14 168
5 157 119 0 5 156
5 119 180 181 160 0
4 99 100 31 30
4 103 104 81 80
5 158 159 108 88 238
4 111 112 95 94
5 116 47 171 182 183
5 120 204 205 224 121
5 122 220 221 150 123
5 124 11 10 21 125
6 126 41 42 192 25 127
5 128 34 50 51 129
6 130 203 56 57 39 131
5 132 39 57 58 133
5 134 66 67 68 135
6 136 135 68 69 70 137
7 138 207 167 202 203 130 139
5 140 73 215 230 231
6 142 141 75 76 77 143
5 144 10 11 12 145
4 146 33 18 147
5 148 34 128 35 149
7 150 221 226 227 74 151 240
7 152 149 35 36 37 22 153
5 154 94 95 78 155
4 156 15 118 157
4 223 87 107 222
6 160 181 1 2 3 161
5 162 54 38 174 163
6 164 121 224 225 71 165
6 166 158 238 239 213 228
4 168 29 117 169
6 170 44 45 46 182 171
5 172 117 29 28 173
6 174 38 131 39 132 175
6 176 82 200 67 66 177
4 178 16 98 179
4 180 96 1 181
4 182 46 115 183
6 184 61 199 62 63 185
5 186 32 31 100 187
5 188 111 94 154 189
5 190 106 85 84 191
6 192 42 43 44 170 193
5 194 115 46 45 195
5 196 60 61 184 197
6 198 155 78 79 62 199
6 200 82 83 191 84 201
6 202 72 73 140 56 203
4 204 234 235 205
7 206 87 223 166 228 229 232
5 208 201 84 85 209
6 210 76 75 74 227 211
7 202 167 213 239 212 236 72
6 214 123 150 240 241 237
5 216 209 85 106 217
5 218 89 88 108 219
5 220 109 90 226 221
5 222 159 158 166 223
5 224 205 235 86 225
5 226 90 91 211 227
5 228 213 167 207 229
6 230 151 74 75 141 231
5 232 229 207 138 233
6 234 107 87 206 86 235
6 236 212 89 218 214 237
5 238 88 89 212 239
5 240 151 230 215 241
CELL_TYPES 122
7
7
7
7
7
7
7
7
7
7
7
7
7
7
7
7
7
7
7
7
7
7
7
7
7
7
7
7
7
7
7
7
7
7
7
7
7
7
7
7
7
7
7
7
7
7
7
7
7
7
7
7
7
7
7
7
7
7
7
7
7
7
7
7
7
7
7
7
7
7
7
7
7
7
7
7
7
7
7
7
7
7
7
7
7
7
7
7
7
7
7
7
7
7
7
7
7
7
7
7
7
7
7
7
7
7
7
7
7
7
7
7
7
7
7
7
7
7
7
7
7
7
CELL_DATA 122
SCALARS cell_division_count float
LOOKUP_TABLE default
1
0
1
0
0
0
1
0
0
1
1
1
1
1
1
1
0
1
1
1
1
1
1
0
1
1
1
1
1
1
1
1
2
3
3
1
1
0
0
1
1
0
0
0
1
2
2
0
1
0
0
1
1
1
1
1
0
0
1
0
1
2
2
1
1
1
1
1
1
1
2
2
1
1
1
1
2
1
1
1
2
1
1
2
3
1
1
1
1
1
1
1
1
1
1
1
1
1
1
1
1
1
2
3
3
2
1
2
3
2
2
2
2
2
2
3
2
3
3
3
3
3
SCALARS cell_time float
LOOKUP_TABLE default
261
2.22229e+13
281
4.48239e+13
2.67348e+11
1.25633e+10
291
2.68223e+09
9.19769e+11
281
281
271
241
291
211
251
1.22627e+06
291
261
291
291
191
231
24073.4
291
291
291
291
291
181
241
181
141
41
31
131
271
1.00108e+18
2.94533e+15
241
231
105373
1635.76
347.338
221
121
121
338.006
231
2989.01
606.177
211
251
261
271
241
1.12104e+13
21456.3
271
2327.96
241
161
121
291
291
291
291
291
291
291
171
51
291
281
281
281
111
271
271
271
121
261
261
121
31
261
251
251
241
241
241
241
241
231
231
231
221
211
211
191
181
181
171
41
71
141
131
131
1
121
121
121
121
121
111
71
51
41
41
31
31
1
SCALARS cell_area float
LOOKUP_TABLE default
3.24472
3.30018
3.28681
3.35793
3.35008
3.33488
3.30457
3.37122
3.3462
3.27515
3.32919
3.27446
3.34649
3.29538
3.29792
3.32743
3.39807
3.26094
3.3032
3.32381
3.35264
3.31988
3.33269
3.35738
3.32553
3.32284
3.38217
3.33684
3.34971
3.30689
3.24686
3.28596
3.3302
3.29194
3.24959
3.23734
3.33743
3.26448
3.27397
3.26101
3.25404
3.29302
3.27574
3.29451
3.22732
3.28686
3.29653
3.26582
3.26749
3.2638
3.2832
3.28867
3.23021
3.27134
3.25755
3.25264
3.21895
3.22383
3.28083
3.20632
3.26116
3.26952
3.29611
3.26876
3.31998
3.28366
3.31594
3.29544
3.27079
3.32187
3.34058
3.2546
3.31484
3.27839
3.23272
3.26123
3.27886
3.32771
3.23455
3.23578
3.24996
3.26167
3.28116
3.29925
3.27962
3.23634
3.29559
3.26682
3.31461
3.27783
3.23743
3.21267
3.22853
3.29659
3.26857
3.2643
3.26495
3.31463
3.2789
3.28121
3.28362
3.26473
3.30019
3.22132
3.31637
3.24671
3.28349
3.30707
3.31206
3.2781
3.28532
3.27882
3.28156
3.23875
3.22874
3.26288
3.28831
3.2765
3.30178
3.2776
3.24544
0
SCALARS cell_perimeter float
LOOKUP_TABLE default
6.91061
6.84478
7.12763
6.96962
6.97211
6.92826
7.06459
7.16392
6.83613
7.08662
7.29813
6.94096
6.8308
7.05955
6.93636
6.74363
7.09504
6.9279
6.99596
7.02171
6.86543
6.9773
6.98764
7.19833
7.2546
6.8614
6.96069
6.86627
6.81399
6.89218
6.96908
6.80925
7.31148
7.2268
6.95821
6.97865
7.20866
7.28892
7.51113
7.36406
7.81945
7.952
7.58985
7.23988
7.29747
7.54409
7.17701
7.11129
7.50568
7.19836
7.3499
7.58295
7.48789
7.72858
7.4793
7.10717
7.28659
7.30105
7.12384
7.28932
7.38971
7.27973
7.17993
7.05597
6.919
7.1201
6.90059
6.95117
7.1241
6.88199
6.98914
7.08721
6.86428
7.21605
7.32144
7.07659
7.09097
6.99149
6.97223
7.63268
7.37648
6.78074
6.99648
7.18533
6.8756
7.65474
6.8062
7.60599
6.9989
6.97083
7.53172
7.27541
7.38402
6.89016
7.56131
7.37172
7.08894
6.79897
7.5607
6.96365
7.0132
6.80588
6.9304
7.31277
6.84815
6.89564
6.8903
7.04846
7.07061
7.47878
7.08361
7.12861
7.22637
6.91183
6.9418
6.99994
7.10026
7.15307
7.49554
6.95512
6.95647
0
SCALARS cell_frequency_modifier float
LOOKUP_TABLE default
2.40234e+16
1.24498e+12
5.99084e+11
1.31918e+12
2.11292e+10
1.81697e+09
896881
1.22262e+08
9.43198e+10
3.78888e+09
1.83793e+07
5.94926e+07
5819.91
352253
3.29445e+08
3.63625e+09
924501
1.99904e+06
1421.53
13.188
4710.88
50147.8
387598
3845.95
343.556
32.1417
1.82162
14.9998
414.397
417.656
172338
17.9512
1.25015
0.89409
181.382
600.726
16.4463
8.0445e+17
7.74775e+14
9.51536e+13
9.47612e+08
283736
65385.6
73.0983
1330.94
0.874806
0.61807
56.7247
50.2635
326426
51879.9
804293
2.01396e+14
2.97508e+15
6.79136e+18
10000
3.29032e+12
147679
1.83867
19378.2
3.93614e+12
4.24749
0.580971
1.06e+09
1.07202e+06
35456.4
15.8125
261.503
1011.67
11.5718
1.77876
500.527
32.831
2.44723e+10
2.75546e+10
7.73494e+07
2.12706
104621
19760.6
2.7015e+18
157.361
3.3841e+16
541.662
0.869754
1.17536
4.02035e+16
8.26121e+07
1.76379e+14
266.347
384.305
4.51032e+15
10000
1.65427e+11
19987.1
1.49097e+09
2234.42
344.84
7.52734e+06
3.25748e+07
19873.1
1564.44
2105.26
3.18396
118.005
0.412587
469.988
8.3213
0.661301
0.596472
2.48779
1.13509
1.44888
1.53738
101.947
210.448
141.687
5.05038
4.00381
0.566686
1.79196
101.846
1
SCALARS cell_area_modifier float
LOOKUP_TABLE default
100
0.518201
0.763407
0.299876
0.311454
0.342291
0.477318
0.296206
0.323963
2.26168
0.357459
2.49485
0.319683
0.625323
0.541387
0.368341
0.289128
100
0.486922
0.379906
0.307497
0.40536
0.347202
0.303639
0.374034
0.385965
0.292624
0.337517
0.315515
0.468085
100
0.788274
0.352256
0.677871
100
100
0.332875
100
2.78161
100
100
0.659401
2.06838
0.64191
100
0.740061
0.566745
34.5714
8.96296
100
0.941634
0.697406
100
3.14286
100
100
100
100
1.11521
100
100
4.24561
0.580336
5.14894
0.398682
0.843206
0.419411
0.609572
3.61194
0.39222
0.328358
100
0.426808
1.4491
100
100
1.29412
0.362819
100
100
100
100
1.06608
0.52954
1.16908
100
0.594595
14.2353
0.442413
1.64626
100
100
100
0.553776
6.54054
100
100
0.43447
1.22843
1.0211
0.873646
100
0.507338
100
0.412266
100
0.906367
0.459203
0.450652
1.5414
0.814815
1.36723
0.979757
100
100
100
0.718101
1.90551
0.49692
1.76642
100
1
SCALARS cell_Gaussian_modifier float
LOOKUP_TABLE default
2.40234e+14
2.40251e+12
7.8475e+11
4.39909e+12
6.78404e+10
5.30824e+09
1.879e+06
4.1276e+08
2.91144e+11
1.67525e+09
5.14163e+07
2.38462e+07
18205.3
563314
6.08521e+08
9.87197e+09
3.19755e+06
19990.4
2919.42
34.7138
15320.1
123712
1.11635e+06
12666.2
918.516
83.2763
6.22513
44.4416
1313.4
892.265
1723.38
22.7728
3.54899
1.31897
1.81382
6.00726
49.4069
8.0445e+15
2.78535e+14
9.51536e+11
9.47612e+06
430294
31612
113.876
13.3094
1.18207
1.09056
1.6408
5.60791
3264.26
55095.6
1.15326e+06
2.01396e+12
9.46618e+14
6.79136e+16
100
3.29032e+10
1476.79
1.64872
193.782
3.93614e+10
1.00044
1.00109
2.05867e+08
2.68891e+06
42049.6
37.7017
428.995
280.091
29.5034
5.41713
5.00527
76.9222
1.68879e+10
2.75546e+08
773494
1.64364
288356
197.606
2.7015e+16
1.57361
3.3841e+14
508.088
1.64247
1.00537
4.02035e+14
1.38939e+08
1.23903e+13
602.033
233.441
4.51032e+13
100
1.65427e+09
36092.4
2.27959e+08
22.3442
3.4484
1.73253e+07
2.65175e+07
19462.5
1790.7
21.0526
6.27583
1.18005
1.00078
4.69988
9.18094
1.44011
1.32358
1.61398
1.39307
1.05972
1.56915
1.01947
2.10448
1.41687
7.03297
2.10117
1.1404
1.01446
1.01846
1
