# vtk DataFile Version 3.0
2D-vertex
ASCII
DATASET UNSTRUCTURED_GRID

POINTS 376 float
0.187619 -2.07205 0
2.72188 -1.91836 0
3.12793 -1.00651 0
2.15398 0.0701046 0
-0.194776 0.290418 0
-0.959347 -1.13205 0
3.7079 -0.985301 0
4.30379 -0.142298 0
3.44946 1.33237 0
2.32588 1.0342 0
1.1752 2.24966 0
-0.563773 2.82473 0
-1.37719 1.59723 0
-1.60703 1.54926 0
-2.1454 0.00722879 0
-1.67038 -0.874734 0
4.88857 -0.313316 0
5.78029 0.568974 0
4.02051 2.04493 0
3.67165 1.97004 0
2.87101 2.90812 0
1.71041 2.85857 0
1.21294 6.2144 0
0.120445 6.19067 0
-0.638312 4.44 0
-1.99807 3.70449 0
-1.98432 1.9393 0
-3.34608 1.6799 0
-3.84468 0.757013 0
-3.56264 0.0471297 0
6.87413 0.558452 0
7.55653 1.32999 0
7.37759 2.62849 0
5.23133 3.70074 0
5.75569 4.29861 0
3.40164 5.50891 0
2.74161 6.64472 0
1.69569 6.82679 0
0.66245 9.58332 0
-1.09802 9.53694 0
-0.72562 6.99496 0
-2.5001 6.18591 0
-3.47232 4.86595 0
-4.56907 4.94673 0
-5.26479 3.74098 0
-6.72119 3.4908 0
-7.01229 2.52286 0
-5.45438 1.06794 0
7.88759 3.34111 0
7.58898 4.29205 0
6.91826 4.64929 0
6.26631 6.64513 0
3.89056 7.69833 0
3.81436 8.40242 0
2.33092 9.74678 0
2.93884 10.5656 0
-2.18605 10.7244 0
-2.16204 10.1756 0
-3.33551 9.0955 0
-3.04985 7.1833 0
-4.86448 7.67738 0
-6.20023 6.55877 0
-8.17365 5.34478 0
-8.04829 4.74082 0
8.5696 4.74735 0
8.57734 4.77371 0
7.2563 6.68848 0
7.64402 8.00136 0
6.4956 9.05781 0
6.71161 9.85182 0
6.07425 10.6472 0
6.07772 11.0294 0
-2.95216 12.9918 0
-3.12017 12.8575 0
-6.72538 11.1267 0
-6.04801 10.034 0
-6.7675 8.99579 0
-6.62855 8.64479 0
-9.13944 6.01693 0
-8.97661 5.54992 0
10.08 5.09711 0
10.4205 6.14821 0
9.71324 7.17321 0
10.807 7.58392 0
10.5656 9.18399 0
10.8044 10.0401 0
9.70015 15.1579 0
9.58926 18.0704 0
-8.8597 18.0271 0
-8.93582 17.517 0
-10.5807 11.088 0
-10.2422 10.3472 0
-10.6024 9.78033 0
-9.84247 8.52315 0
-10.5778 7.28854 0
-10.1381 6.1847 0
3.57855 -3.75928 0
4.82186 -3.22463 0
5.70538 -2.81514 0
8.14085 -1.21529 0
9.47313 0.238788 0
10.8492 2.5816 0
10.9817 2.8155 0
11.7296 3.95801 0
12.5227 5.93448 0
12.7426 6.78552 0
12.8809 10.4491 0
11.4113 19.198 0
-11.0683 19.4054 0
-12.7528 11.2729 0
-12.7816 9.78576 0
-12.5242 7.04903 0
-11.737 5.02301 0
-10.9071 3.83731 0
-10.2743 3.00857 0
-9.29104 1.51906 0
-7.33584 -0.689527 0
-5.2266 -2.14592 0
-3.10007 -3.18232 0
-0.0832584 -4.05555 0
12.5485 12.5999 0
9.34877 12.053 0
-12.4911 14.7656 0
-10.2337 14.6997 0
-0.435587 4.17253 0
1.02566 4.27346 0
-1.99447 6.09883 0
-1.37836 4.44301 0
4.78961 5.71363 0
5.17999 6.66761 0
0.33003 10.8918 0
0.167985 10.0344 0
-1.31688 8.17265 0
-2.70587 7.90201 0
6.26579 6.64757 0
5.49827 8.50102 0
4.53699 8.93656 0
4.46414 10.0898 0
2.59716 11.2589 0
2.59553 11.2569 0
-3.00286 11.2066 0
-4.5406 10.0391 0
-4.11558 9.20236 0
-4.95919 8.26922 0
1.26352 1.69766 0
-0.242842 0.69093 0
6.56413 2.84063 0
5.45101 1.21722 0
5.22918 3.70202 0
3.19236 4.42875 0
-9.4073 12.5228 0
-6.48352 11.6516 0
3.18998 4.42797 0
1.66246 5.08528 0
-9.76303 8.35851 0
-8.33625 7.60832 0
-1.01467 -1.15791 0
-1.47731 -3.78251 0
1.30208 24.8648 0
1.41653 26.2757 0
1.03938 -1.73403 0
1.17458 -0.336988 0
2.70118 8.77217 0
1.48112 7.62058 0
9.17546 11.3636 0
6.17744 10.8539 0
5.5714 22.1855 0
0.651749 12.4227 0
-2.96146 -0.240866 0
-3.70036 -2.91909 0
-4.70852 2.76017 0
-5.5682 1.68828 0
-5.90694 -1.73437 0
-4.82313 0.628534 0
0.44161 8.12578 0
-0.649237 7.61972 0
9.66024 6.9107 0
8.03471 6.09022 0
5.58333 0.0425527 0
7.21789 -1.92897 0
1.50417 -4.15813 0
1.57546 -2.17528 0
-6.54813 1.83471 0
-8.11596 0.0463548 0
-5.87339 5.43494 0
-7.15136 4.3527 0
7.69241 2.79111 0
10.0702 1.1408 0
-12.7107 8.46398 0
-9.84424 8.52138 0
13.0166 8.87717 0
11.0247 8.70151 0
-3.08813 3.94659 0
-3.96684 2.72031 0
-9.79634 2.32488 0
-7.15377 3.83413 0
-3.96922 7.03595 0
-4.74696 5.28942 0
-7.31197 7.68644 0
-6.88581 6.71065 0
8.64903 8.23391 0
8.89938 8.89598 0
-0.864487 12.1828 0
-0.792273 11.6164 0
12.5494 12.8558 0
10.2273 13.5829 0
9.48915 16.4061 0
2.48579 11.4607 0
8.29822 9.93549 0
9.64119 10.9817 0
-7.94771 9.24706 0
-8.26159 10.217 0
-2.32672 14.3822 0
1.20041 13.6825 0
-9.87728 15.3992 0
-4.52975 13.0235 0
9.64073 10.9842 0
12.6661 11.7594 0
-9.96412 17.1877 0
-11.6915 18.2322 0
-12.642 12.5916 0
-9.67888 12.1843 0
9.47698 21.8221 0
8.13631 19.8771 0
8.97643 12.4346 0
6.94376 12.2609 0
-9.66293 12.1373 0
-7.87296 11.0067 0
2.76247 14.5398 0
4.69683 13.3742 0
-5.04547 11.8212 0
-4.20375 10.7911 0
5.39097 13.3068 0
4.69772 11.5951 0
12.5302 14.8468 0
10.3628 14.4756 0
-2.96903 14.1102 0
-5.00009 14.1691 0
-1.33896 23.9817 0
0.257664 14.8879 0
-7.12895 12.5294 0
-5.02784 13.5422 0
-12.5662 13.5438 0
-9.85134 13.4198 0
5.80405 17.7857 0
7.89177 16.4936 0
-0.832518 13.5991 0
-0.534408 12.4954 0
-7.23185 21.906 0
-8.60587 23.1199 0
0.359007 24.3188 0
2.50935 15.549 0
-2.98818 16.5467 0
-6.46673 22.2026 0
-10.3385 16.0594 0
-12.3319 16.2193 0
-6.58903 16.346 0
-6.44836 14.8841 0
-6.92957 13.0263 0
-7.62004 14.4013 0
12.102 17.3299 0
9.91368 17.0737 0
-4.76306 23.5928 0
-4.93392 25.3964 0
6.54461 13.2119 0
5.39284 13.3051 0
8.81714 18.4008 0
7.59487 17.503 0
4.32762 14.3497 0
6.29994 17.5532 0
-2.06109 15.3435 0
-0.242842 15.6286 0
6.6825 24.4034 0
5.43853 23.0171 0
0.578835 14.8655 0
1.63405 15.9264 0
3.54712 23.3436 0
4.07097 16.7743 0
12.3386 16.0979 0
9.9222 15.7458 0
-8.10829 16.5663 0
-8.59549 15.5248 0
-9.65546 13.7581 0
-7.75089 13.9728 0
-7.34596 21.1257 0
-5.78859 17.8718 0
-0.483573 24.696 0
-0.632497 26.2849 0
2.1825 13.6959 0
3.06412 12.4677 0
-3.90248 16.1099 0
-4.16053 15.2092 0
-9.69135 21.7456 0
-8.19221 20.7338 0
0.393701 17.1544 0
-0.10489 16.7384 0
7.95027 14.7167 0
7.30513 15.4344 0
9.15948 13.1717 0
7.85782 14.1953 0
-6.26238 23.1697 0
-7.17211 24.403 0
-2.53418 16.3743 0
-1.4347 17.3349 0
1.7405 17.1793 0
3.21853 17.5691 0
6.50088 15.3184 0
6.0794 15.8072 0
-5.88858 19.8594 0
-5.23223 20.1214 0
-8.3638 18.2803 0
-6.28959 17.3558 0
4.01861 16.418 0
4.93125 15.5503 0
-4.00172 22.5064 0
-3.22077 18.3155 0
4.76471 25.4731 0
4.25248 23.662 0
-2.43117 26.0103 0
-2.02963 24.1888 0
7.25564 19.7645 0
6.8319 17.8783 0
7.85287 23.3836 0
6.38719 21.9076 0
3.4515 19.5233 0
4.68533 20.572 0
1.09868 19.4307 0
2.92664 19.6868 0
0.0575112 22.2947 0
-0.971719 22.5777 0
-1.90768 21.351 0
-2.77996 20.5249 0
-6.16554 16.679 0
-4.2316 15.1966 0
-4.05442 22.514 0
-5.23344 21.4185 0
3.52312 21.9218 0
4.59479 21.4246 0
-10.5151 20.4016 0
-8.3921 19.2459 0
-8.15269 19.4084 0
-6.27433 18.969 0
-0.984913 19.1491 0
0.0599732 18.6677 0
2.48533 23.8535 0
0.991989 20.5306 0
3.28406 25.937 0
2.81806 23.9463 0
-3.92441 25.6443 0
-3.26806 23.3872 0
-5.05675 17.7561 0
-4.26475 18.6559 0
6.7296 20.512 0
5.92004 19.9022 0
1.73839 17.1806 0
1.97762 18.9868 0
8.83021 19.2132 0
10.7302 20.3441 0
8.75946 22.5037 0
6.90718 20.4712 0
-2.87352 23.3071 0
-2.10376 21.365 0
-1.61702 18.7052 0
-2.40503 19.0116 0
2.12666 21.4528 0
2.64953 21.2691 0
-4.45941 19.7179 0
-3.38309 20.6695 0
3.75925 18.7038 0
5.53477 18.6352 0
-0.953585 20.2216 0
0.259234 20.8697 0
0.599541 22.7976 0
1.80773 22.5339 0
-1.25272 24.0537 0
-1.53183 26.1476 0

CELLS 564 1692
2 160 0
2 1 2
2 2 3
2 161 4
2 4 5
2 5 0
2 2 6
2 6 7
2 7 8
2 8 9
2 3 9
2 9 144
2 10 11
2 11 12
2 145 4
2 12 13
2 13 14
2 15 14
2 5 156
2 7 16
2 17 178
2 147 17
2 19 18
2 19 8
2 20 19
2 21 20
2 10 21
2 153 125
2 23 22
2 24 23
2 24 124
2 127 24
2 26 25
2 26 13
2 27 26
2 28 27
2 29 28
2 14 168
2 30 17
2 30 31
2 32 31
2 32 146
2 18 33
2 33 148
2 128 35
2 20 152
2 35 36
2 37 36
2 22 37
2 37 163
2 38 131
2 175 40
2 40 23
2 126 40
2 42 41
2 25 192
2 43 42
2 43 44
2 193 27
2 45 44
2 46 45
2 47 171
2 173 47
2 48 186
2 48 49
2 49 50
2 34 50
2 50 51
2 52 129
2 36 52
2 52 53
2 53 162
2 54 38
2 55 54
2 139 55
2 57 56
2 39 57
2 58 57
2 59 133
2 41 59
2 59 196
2 61 60
2 197 43
2 199 61
2 62 63
2 195 185
2 49 64
2 64 65
2 177 65
2 51 134
2 67 66
2 68 67
2 53 136
2 69 68
2 70 69
2 55 137
2 165 70
2 233 71
2 73 72
2 140 56
2 215 73
2 74 75
2 58 142
2 76 75
2 77 76
2 60 143
2 77 198
2 78 79
2 79 62
2 65 80
2 80 81
2 81 176
2 67 200
2 82 83
2 83 191
2 69 208
2 84 85
2 164 216
2 71 225
2 86 279
2 158 250
2 88 89
2 290 252
2 254 214
2 90 91
2 91 211
2 91 92
2 92 93
2 93 210
2 189 93
2 94 95
2 95 78
2 96 1
2 96 97
2 97 6
2 97 98
2 16 98
2 179 99
2 99 30
2 31 100
2 187 101
2 101 48
2 101 102
2 102 64
2 102 103
2 103 80
2 81 104
2 104 105
2 83 105
2 105 190
2 85 106
2 217 120
2 87 107
2 108 88
2 255 122
2 109 90
2 109 110
2 92 110
2 110 188
2 111 94
2 95 112
2 112 113
2 113 79
2 113 114
2 63 114
2 114 194
2 115 46
2 116 47
2 116 172
2 117 29
2 169 118
2 118 15
2 157 119
2 0 119
2 119 180
2 99 100
2 103 104
2 249 292
2 111 112
2 183 116
2 120 204
2 121 224
2 120 121
2 122 242
2 123 282
2 122 123
2 124 11
2 125 21
2 124 125
2 41 126
2 127 25
2 126 127
2 34 128
2 129 51
2 128 129
2 203 130
2 131 39
2 130 131
2 39 132
2 133 58
2 132 133
2 134 66
2 135 68
2 134 135
2 136 135
2 137 70
2 136 137
2 207 138
2 130 139
2 139 138
2 140 73
2 75 141
2 231 140
2 142 141
2 143 77
2 142 143
2 144 10
2 145 12
2 144 145
2 146 33
2 147 18
2 146 147
2 148 34
2 149 35
2 148 149
2 221 150
2 151 74
2 150 240
2 152 149
2 153 22
2 152 153
2 94 154
2 155 78
2 154 155
2 156 15
2 157 118
2 156 157
2 266 87
2 357 222
2 159 158
2 181 160
2 161 3
2 160 161
2 162 54
2 163 174
2 162 163
2 164 121
2 71 165
2 165 164
2 166 273
2 247 167
2 166 337
2 168 29
2 169 117
2 168 169
2 44 170
2 171 182
2 170 171
2 172 117
2 173 28
2 172 173
2 174 38
2 175 132
2 174 175
2 176 82
2 177 66
2 176 177
2 178 16
2 179 98
2 178 179
2 180 96
2 181 1
2 180 181
2 182 46
2 183 115
2 182 183
2 61 184
2 185 63
2 184 185
2 186 32
2 187 100
2 186 187
2 188 111
2 189 154
2 188 189
2 190 106
2 191 84
2 190 191
2 192 42
2 193 170
2 192 193
2 194 115
2 195 45
2 194 195
2 196 60
2 197 184
2 196 197
2 198 155
2 199 62
2 198 199
2 200 82
2 201 84
2 200 201
2 72 202
2 203 56
2 202 203
2 204 234
2 205 235
2 205 204
2 261 206
2 167 207
2 206 245
2 208 201
2 209 85
2 208 209
2 210 76
2 227 74
2 210 211
2 236 72
2 213 167
2 239 274
2 214 123
2 230 215
2 241 237
2 216 209
2 217 106
2 216 217
2 89 218
2 219 108
2 218 219
2 220 109
2 221 226
2 220 221
2 222 358
2 320 223
2 223 222
2 224 298
2 264 225
2 225 224
2 226 90
2 227 211
2 226 227
2 228 288
2 289 229
2 228 268
2 151 230
2 231 141
2 230 231
2 229 232
2 233 138
2 265 233
2 234 278
2 235 86
2 235 234
2 236 212
2 257 237
2 291 236
2 248 284
2 246 239
2 271 295
2 240 151
2 241 215
2 240 258
2 242 220
2 243 150
2 242 243
2 277 244
2 232 306
2 245 267
2 212 246
2 247 202
2 246 247
2 253 248
2 301 249
2 249 248
2 238 374
2 251 228
2 294 354
2 252 302
2 300 253
2 335 309
2 218 254
2 255 219
2 254 255
2 280 256
2 259 281
2 256 257
2 258 241
2 259 257
2 283 259
2 260 107
2 261 87
2 260 261
2 319 238
2 375 318
2 263 262
2 299 264
2 232 265
2 265 264
2 223 356
2 244 269
2 267 266
2 268 229
2 321 267
2 313 307
2 212 270
2 271 239
2 270 271
2 272 316
2 273 317
2 272 273
2 274 213
2 275 251
2 274 275
2 276 347
2 277 312
2 336 276
2 278 260
2 279 206
2 278 279
2 89 280
2 281 214
2 280 281
2 282 243
2 283 258
2 282 283
2 284 293
2 311 285
2 308 284
2 250 286
2 287 159
2 286 287
2 288 213
2 289 207
2 288 289
2 285 350
2 333 291
2 291 290
2 292 338
2 293 340
2 293 292
2 326 345
2 330 370
2 295 294
2 86 296
2 297 245
2 296 297
2 298 205
2 299 296
2 298 299
2 262 300
2 301 263
2 300 301
2 302 270
2 303 295
2 302 303
2 304 275
2 305 277
2 304 305
2 306 297
2 307 269
2 306 307
2 308 341
2 315 252
2 309 308
2 88 310
2 311 332
2 310 311
2 312 251
2 313 268
2 312 313
2 314 334
2 309 366
2 315 363
2 316 346
2 276 317
2 317 316
2 318 348
2 319 360
2 318 319
2 359 320
2 269 321
2 321 320
2 322 272
2 323 166
2 322 323
2 324 368
2 369 353
2 325 324
2 343 326
2 324 327
2 326 355
2 250 372
2 329 238
2 328 329
2 329 330
2 367 314
2 330 361
2 332 256
2 333 237
2 332 333
2 262 334
2 335 253
2 334 335
2 365 336
2 337 325
2 336 337
2 338 108
2 339 310
2 338 339
2 340 339
2 341 285
2 340 341
2 303 362
2 343 294
2 342 343
2 344 158
2 328 371
2 373 344
2 346 159
2 347 344
2 346 347
2 348 263
2 349 314
2 348 349
2 350 290
2 351 315
2 350 351
2 323 352
2 353 325
2 352 353
2 354 304
2 355 327
2 354 355
2 356 266
2 357 107
2 356 357
2 358 322
2 359 352
2 358 359
2 360 349
2 361 331
2 360 361
2 362 342
2 363 331
2 362 363
2 345 364
2 365 327
2 364 365
2 366 351
2 367 331
2 366 367
2 368 305
2 369 244
2 368 369
2 370 342
2 371 345
2 370 371
2 372 328
2 373 364
2 372 373
2 374 286
2 375 287
2 374 375

CELL_TYPES 564
3
3
3
3
3
3
3
3
3
3
3
3
3
3
3
3
3
3
3
3
3
3
3
3
3
3
3
3
3
3
3
3
3
3
3
3
3
3
3
3
3
3
3
3
3
3
3
3
3
3
3
3
3
3
3
3
3
3
3
3
3
3
3
3
3
3
3
3
3
3
3
3
3
3
3
3
3
3
3
3
3
3
3
3
3
3
3
3
3
3
3
3
3
3
3
3
3
3
3
3
3
3
3
3
3
3
3
3
3
3
3
3
3
3
3
3
3
3
3
3
3
3
3
3
3
3
3
3
3
3
3
3
3
3
3
3
3
3
3
3
3
3
3
3
3
3
3
3
3
3
3
3
3
3
3
3
3
3
3
3
3
3
3
3
3
3
3
3
3
3
3
3
3
3
3
3
3
3
3
3
3
3
3
3
3
3
3
3
3
3
3
3
3
3
3
3
3
3
3
3
3
3
3
3
3
3
3
3
3
3
3
3
3
3
3
3
3
3
3
3
3
3
3
3
3
3
3
3
3
3
3
3
3
3
3
3
3
3
3
3
3
3
3
3
3
3
3
3
3
3
3
3
3
3
3
3
3
3
3
3
3
3
3
3
3
3
3
3
3
3
3
3
3
3
3
3
3
3
3
3
3
3
3
3
3
3
3
3
3
3
3
3
3
3
3
3
3
3
3
3
3
3
3
3
3
3
3
3
3
3
3
3
3
3
3
3
3
3
3
3
3
3
3
3
3
3
3
3
3
3
3
3
3
3
3
3
3
3
3
3
3
3
3
3
3
3
3
3
3
3
3
3
3
3
3
3
3
3
3
3
3
3
3
3
3
3
3
3
3
3
3
3
3
3
3
3
3
3
3
3
3
3
3
3
3
3
3
3
3
3
3
3
3
3
3
3
3
3
3
3
3
3
3
3
3
3
3
3
3
3
3
3
3
3
3
3
3
3
3
3
3
3
3
3
3
3
3
3
3
3
3
3
3
3
3
3
3
3
3
3
3
3
3
3
3
3
3
3
3
3
3
3
3
3
3
3
3
3
3
3
3
3
3
3
3
3
3
3
3
3
3
3
3
3
3
3
3
3
3
3
3
3
3
3
3
3
3
3
3
3
3
3
3
3
3
3
3
3
3
3
3
3
3
3
3
3
3
3
3
3
3
3
3
3
3
3
3
3
3
3
3
3
3
3
3
3
3
3
3
3
3
3
3
3
3
3
3
3
3
3
3
3
3
3
3
3
3
3
3
3
3
3
3
3
3
3
3
3
3
3
3
3
3
3

CELL_DATA 564
SCALARS current_Length float
LOOKUP_TABLE default
0.916377
0.998164
1.45178
1.50624
1.61493
1.48294
0.580357
1.03235
1.70427
1.16247
0.979297
1.25251
1.83159
1.47255
0.403386
0.234793
1.6333
1.00175
0.0610648
0.609269
0.56206
0.727078
0.35681
0.67527
1.23329
1.16165
0.810697
1.03178
1.09275
1.90803
0.335612
0.740054
1.76524
0.542662
1.38624
1.04896
0.763859
0.852944
1.09389
1.03002
1.31077
0.840666
2.05129
0.002498
1.40298
1.55296
1.31367
1.06164
0.779783
0.822285
0.669315
0.629412
1.16735
1.55339
1.63937
1.11663
1.09972
1.39206
1.21152
1.47773
1.01076
0.630702
0.769126
0.583603
0.996722
0.759922
1.21431
2.09963
1.65076
1.5589
0.7082
1.17298
1.67646
1.01986
0.771857
0.549322
1.24099
1.5949
0.796785
1.13886
0.931099
1.74227
0.386114
0.702204
0.616831
0.518574
1.08116
0.0274768
1.42396
0.00249519
1.36893
1.56044
0.898611
0.822875
1.01927
1.59778
0.230969
1.49145
0.21509
0.948489
1.41931
1.28565
0.787348
1.26313
0.377501
0.599373
1.17708
0.494584
0.828745
1.53707
1.10486
1.07673
1.03157
1.16829
1.13861
1.58881
0.888778
0.600337
1.50556
0.628425
1.08969
0.515717
1.01326
0.805389
0.814503
1.98488
0.67161
1.46903
2.02834
0.00251027
1.18821
1.01261
2.03048
1.35339
2.5011
0.973795
2.63179
1.1667
2.17962
2.20546
1.63795
3.05749
0.268827
3.09039
1.36552
2.00469
2.11303
0.87899
2.09379
2.10953
2.11634
0.848657
2.14275
2.60343
1.46243
2.18002
1.48738
2.17913
1.32367
1.96104
1.97638
1.44726
2.58069
1.04272
2.82061
0.834201
2.49005
2.5746
1.77015
2.75285
0.655463
2.71459
1.42054
2.00192
1.59073
1.97213
2.12964
1.75128
2.17357
1.07243
0.255909
0.533171
3.24611
1.22408
1.10494
2.25841
1.35389
1.57188
1.46473
0.51307
0.964085
1.76673
1.71335
1.08656
1.03077
1.33593
1.36024
0.872548
1.38173
1.3494
1.41512
0.991351
1.14222
2.00608
1.05535
1.70386
1.15559
0.230482
2.29475
0.00251381
1.65514
1.50741
1.27073
0.938541
1.71109
1.25795
0.559019
1.45194
1.81181
1.58624
1.6527
1.96837
0.795692
1.10025
2.16258
0.433963
0.577951
2.27836
0.00250624
1.21531
1.66294
1.34487
1.7826
1.61198
0.71425
1.73019
2.66506
0.839875
1.93774
1.41553
0.694325
1.06064
1.40357
1.04257
1.15577
1.67771
0.710896
0.201844
3.04104
0.842117
1.18838
1.23805
0.666601
1.71091
2.77828
1.12758
0.990812
1.37404
0.795138
0.986849
2.59961
1.47417
0.866876
1.20252
0.267804
0.981758
1.82086
0.780601
1.753
2.56099
2.11238
1.17486
1.98413
0.830057
1.88405
2.37829
1.17039
0.977304
1.67465
0.354349
1.0817
2.89434
1.4272
0.18199
2.86705
1.57782
0.666045
1.99963
0.996404
0.742749
1.50861
0.951142
0.552268
3.04319
1.10133
1.13578
1.91187
1.02725
1.87727
1.06479
1.50254
1.69089
0.707815
2.23895
1.65479
0.570945
1.99111
0.902878
2.43323
0.791127
2.07103
1.59977
1.20083
1.49661
1.7024
1.20666
1.15385
1.01951
1.11851
1.37416
0.321952
0.785094
1.30817
0.627482
0.0025091
1.32773
3.12312
1.07972
1.32844
2.01859
1.3234
0.0496733
2.99094
0.989653
0.887838
2.36229
0.759505
1.03132
2.04008
1.394
0.88009
2.11713
1.02395
1.86751
1.57665
1.44801
0.823929
1.33033
0.697402
2.1273
1.8459
1.26575
0.95112
2.19898
0.697538
1.61517
1.62092
0.788568
1.68808
1.11837
1.08954
0.71916
0.535439
0.955193
1.0009
2.71768
2.00657
2.29753
1.05222
1.687
0.454583
1.14325
0.820608
1.92401
1.83345
1.1144
1.04052
1.34495
0.48561
0.988372
1.29709
1.18884
2.11238
1.99979
1.53515
1.48785
1.4686
1.97046
1.26727
0.448053
1.99178
1.04812
2.20328
0.72105
1.81951
1.81171
1.64065
0.0025122
1.15554
0.960355
0.547667
1.51656
1.04298
0.850275
1.17653
0.997317
0.893904
1.84045
2.19596
1.35003
1.86261
1.33634
0.953172
1.49632
0.945952
0.360211
1.42197
1.25444
0.789682
2.4419
1.26037
1.28793
1.14988
0.390907
1.25311
1.91663
0.932593
0.719168
1.93071
0.923141
2.04905
1.59586
0.982183
1.16125
1.51191
0.740927
0.0721709
0.936962
1.57643
1.32604
1.80863
1.10505
1.47843
0.649344
1.80463
1.2108
0.965021
1.14429
0.529522
1.65591
1.55789
2.44877
1.53254
1.1342
1.45746
1.45996
1.25739
1.16549
1.52858
0.812573
1.75987
0.645441
0.970305
1.78409
0.706717
0.5568
0.688106
2.27088
1.74152
1.34389
1.25923
0.0532426
0.871796
1.07236
1.55163
0.773888
1.8822
1.53744
1.22044
1.86523
0.787931
0.623431
1.93317
1.55233
0.861826
2.08011
0.875295
1.32423
1.61934
1.28882
0.549743
0.984662
1.54014
1.45121
1.06742
1.54305
1.93827
0.19658
0.53874
1.28314
2.4367
1.29078
1.46148
1.6094
1.09048
0.857353
1.1814
1.13941
0.966019
2.41722
0.289385
1.19996
1.92906
1.38241
1.54967
1.15046
1.55651
1.43928
1.48346
1.89797
0.345422
2.04454
1.03949
1.14639
2.35057
2.01053
1.09808
1.19875
1.43703
1.40471
1.01352
0.00250221
1.17922
1.82197
0.812437
1.33319
2.21111
1.26341
0.182203
2.74992
0.402585
1.07844
2.08915
0.772411
1.55901
0.845485
1.4622
1.60644
0.554207
1.07971
0.620216
1.43662
1.25695
0.891212
1.77684
1.07293
0.807415
1.37511
0.739351
1.12708
1.23664
3.30099
3.37723
0

SCALARS edge_force float
LOOKUP_TABLE default
0.5
0.5
0.5
0.5
0.5
0.5
0.5
0.5
0.5
0.5
0.5
0.5
0.5
0.5
0.5
0.5
0.5
0.5
0.5
0.5
0.5
0.5
0.5
0.5
0.5
0.5
0.5
0.5
0.5
0.5
0.5
0.5
0.5
0.5
0.5
0.5
0.5
0.5
0.5
0.5
0.5
0.5
0.5
0.5
0.5
0.5
0.5
0.5
0.5
0.5
0.5
0.5
0.5
0.5
0.5
0.5
0.5
0.5
0.5
0.5
0.5
0.5
0.5
0.5
0.5
0.5
0.5
0.5
0.5
0.5
0.5
0.5
0.5
0.5
0.5
0.5
0.5
0.5
0.5
0.5
0.5
0.5
0.5
0.5
0.5
0.5
0.5
0.5
0.5
0.5
0.5
0.5
0.5
0.5
0.5
0.5
0.5
0.5
0.5
0.5
0.5
0.5
0.5
0.5
0.5
0.5
0.5
0.5
0.5
0.5
0.5
0.5
0.5
0.5
0.5
0.5
0.5
0.5
0.5
0.5
0.5
0.5
0.5
0.5
0.5
0.5
0.5
0.5
0.5
0.5
0.5
0.5
0.5
2
0.5
2
0.5
2
0.5
0.5
2
0.5
2
0.5
2
0.5
0.5
2
0.5
2
0.5
2
0.5
0.5
2
0.5
2
0.5
2
0.5
0.5
2
0.5
2
0.5
2
0.5
0.5
2
0.5
2
0.5
2
0.5
2
2
2
2
2
2
2
0.5
0.5
2
0.5
0.5
0.5
0.5
0.5
0.5
0.5
0.5
0.5
0.5
0.5
0.5
0.5
0.5
0.5
0.5
0.5
0.5
0.5
0.5
0.5
0.5
0.5
0.5
0.5
0.5
0.5
0.5
0.5
0.5
0.5
0.5
0.5
0.5
0.5
0.5
0.5
0.5
0.5
0.5
0.5
0.5
0.5
0.5
0.5
0.5
0.5
0.5
0.5
0.5
0.5
2
0.5
0.5
2
0.5
0.5
0.5
0.5
0.5
0.5
0.5
0.5
0.5
0.5
0.5
0.5
0.5
0.5
2
0.5
0.5
0.5
0.5
2
0.5
0.5
0.5
0.5
0.5
0.5
0.5
0.5
0.5
2
0.5
2
0.5
0.5
0.5
2
0.5
0.5
0.5
0.5
0.5
2
0.5
2
0.5
0.5
2
0.5
0.5
0.5
0.5
0.5
2
0.5
0.5
0.5
0.5
0.5
0.5
0.5
0.5
0.5
0.5
0.5
0.5
0.5
0.5
2
0.5
0.5
0.5
0.5
0.5
0.5
0.5
0.5
0.5
0.5
0.5
0.5
0.5
0.5
0.5
0.5
0.5
0.5
2
0.5
0.5
2
0.5
2
0.5
0.5
2
0.5
0.5
0.5
0.5
0.5
0.5
0.5
0.5
0.5
0.5
0.5
0.5
0.5
0.5
0.5
0.5
0.5
2
0.5
0.5
0.5
0.5
0.5
0.5
0.5
0.5
0.5
0.5
0.5
2
0.5
0.5
0.5
0.5
0.5
0.5
0.5
0.5
0.5
2
0.5
0.5
0.5
0.5
0.5
0.5
0.5
0.5
2
0.5
0.5
0.5
0.5
0.5
0.5
0.5
2
0.5
0.5
0.5
2
0.5
0.5
0.5
0.5
0.5
0.5
0.5
0.5
0.5
0.5
0.5
0.5
0.5
2
0.5
0.5
0.5
0.5
0.5
0.5
0.5
0.5
2
0.5
0.5
0.5
0.5
0.5
0.5
0.5
0.5
0.5
0.5
0.5
0.5
2
0.5
0.5
0.5
0.5
0.5
0.5
0.5
2
0.5
0.5
0.5
0.5
0.5
0.5
0.5
0.5
0.5
0.5
0.5
0.5
2
0.5
0.5
0.5
0.5
0.5
0.5
0.5
0.5
0.5
0.5
0.5
0.5
0.5
0.5
0.5
0.5
0.5
0.5
0.5
0.5
0.5
0.5
2
0.5
0.5
2
0.5
0.5
0.5
0.5
0.5
2
0.5
0.5
0.5
0.5
0.5
0.5
0.5
0.5
0.5
0.5
0.5
0.5
0.5
0.5
0.5
0.5
0.5
0.5
0.5
0.5
0.5
0.5
0.5
2
0.5
0.5
0.5
0.5
0.5
0.5
0.5
0.5
0.5
0.5
0.5
2
0.5
0.5
2
0.5
0.5
0.5
0.5
0.5
0.5
0.5
0.5
0.5
0.5
0.5
0.5
2
0.5
2
0.5
0.5
0.5
0.5
0.5
0.5
0.5
0.5
0.5
0.5
0.5
0.5
0.5
0.5
0.5
0.5
0.5
0.5
0.5
0.5
0.5
0.5
0.5
0
0
0
