# vtk DataFile Version 3.0
2D-vertex
ASCII
DATASET UNSTRUCTURED_GRID

POINTS 420 float
0.0918139 -2.24037 0
2.58777 -2.1262 0
3.01062 -1.20769 0
2.04096 -0.108207 0
-0.267334 0.135871 0
-1.04566 -1.29978 0
3.56704 -1.19525 0
4.17513 -0.36435 0
3.32782 1.15273 0
2.22814 0.875485 0
1.09814 2.13669 0
-0.609883 2.71131 0
-1.43099 1.48134 0
-1.63185 1.44053 0
-2.19478 -0.14415 0
-1.7229 -1.03974 0
4.75178 -0.546269 0
5.63123 0.308775 0
3.88217 1.8614 0
3.56136 1.79747 0
2.7546 2.76755 0
1.62797 2.73086 0
1.15999 6.18678 0
0.138531 6.18402 0
-0.673728 4.40957 0
-1.99992 3.638 0
-1.99311 1.81996 0
-3.33228 1.57124 0
-3.8551 0.610659 0
-3.57758 -0.105392 0
6.71469 0.276316 0
7.39051 1.00494 0
7.25192 2.31566 0
5.10547 3.49209 0
5.62226 4.06615 0
3.30607 5.38663 0
2.6452 6.58568 0
1.64962 6.7851 0
0.704055 9.67147 0
-1.01743 9.67637 0
-0.701711 7.0065 0
-2.41019 6.17808 0
-3.42683 4.79708 0
-4.47695 4.87253 0
-5.20469 3.59984 0
-6.65016 3.34243 0
-6.95266 2.33704 0
-5.43316 0.910177 0
7.74249 2.97191 0
7.45401 3.97305 0
6.76151 4.3768 0
6.14716 6.40883 0
3.80775 7.58448 0
3.7547 8.32631 0
2.307 9.78577 0
2.90588 10.5434 0
-2.06422 10.8983 0
-2.03125 10.2786 0
-3.23476 9.13515 0
-2.96276 7.16857 0
-4.72908 7.61365 0
-6.08837 6.4348 0
-8.06065 5.13485 0
-7.93152 4.56226 0
8.43472 4.38247 0
8.43511 4.38494 0
7.11865 6.39281 0
7.56647 7.6409 0
6.42106 8.81526 0
6.66079 9.54276 0
6.02433 10.4357 0
5.92424 10.8064 0
-2.80686 13.151 0
-3.01373 12.9661 0
-6.56789 10.912 0
-5.88915 9.92895 0
-6.60385 8.80281 0
-6.48234 8.52185 0
-9.03737 5.74229 0
-8.8801 5.32466 0
9.96575 4.65416 0
10.3295 5.64902 0
9.6206 6.6812 0
10.7667 7.05786 0
10.5684 8.6288 0
10.8216 9.42633 0
10.0729 14.3788 0
10.528 17.0115 0
-9.49079 17.2626 0
-9.48754 16.8733 0
-10.5163 10.6153 0
-10.1796 9.95067 0
-10.5224 9.37012 0
-9.7614 8.17031 0
-10.513 6.9384 0
-10.0643 5.88784 0
3.43224 -3.99595 0
4.66648 -3.48332 0
5.53363 -3.09717 0
7.9654 -1.56002 0
9.31488 -0.149184 0
10.7324 2.14819 0
10.8441 2.33469 0
11.6101 3.42803 0
12.4619 5.35552 0
12.7038 6.16437 0
12.9922 9.7602 0
12.6823 17.827 0
-12.1269 18.3671 0
-12.8432 10.7043 0
-12.8127 9.30058 0
-12.4919 6.64898 0
-11.6662 4.66244 0
-10.8269 3.51662 0
-10.2109 2.73671 0
-9.27415 1.32455 0
-7.35356 -0.862023 0
-5.28349 -2.31148 0
-3.19117 -3.35427 0
-0.200812 -4.25118 0
12.8042 11.7682 0
9.27756 11.4323 0
-12.8443 13.8777 0
-10.3879 14.0813 0
-0.461399 4.11707 0
0.943029 4.19149 0
-1.98163 6.10562 0
-1.3473 4.41863 0
4.6561 5.55673 0
5.07605 6.48658 0
0.400315 11.0555 0
0.208043 10.1448 0
-1.25137 8.23391 0
-2.59218 7.96684 0
6.14654 6.41125 0
5.41887 8.31543 0
4.45884 8.80369 0
4.44162 9.98981 0
2.54481 11.3276 0
2.54295 11.326 0
-2.80941 11.3128 0
-4.36874 9.99299 0
-3.94223 9.21219 0
-4.82882 8.18693 0
1.18662 1.54589 0
-0.31475 0.572297 0
6.43829 2.56363 0
5.29627 1.00359 0
5.1034 3.49349 0
3.08758 4.29977 0
-9.38476 12.0813 0
-6.34829 11.4718 0
3.0851 4.29947 0
1.60404 4.99814 0
-9.7052 8.05715 0
-8.27683 7.36183 0
-1.0897 -1.32026 0
-1.57794 -3.96884 0
1.66033 27.8288 0
1.67297 29.1374 0
0.930235 -1.91663 0
1.08224 -0.495372 0
2.66933 8.73264 0
1.44007 7.64687 0
9.10921 10.9037 0
6.06961 10.5176 0
7.38526 22.8086 0
0.615054 12.6472 0
-3.00255 -0.386221 0
-3.76824 -3.09494 0
-4.65469 2.64042 0
-5.54329 1.53173 0
-5.93761 -1.90939 0
-4.82843 0.485344 0
0.440319 8.16369 0
-0.610438 7.69464 0
9.5692 6.46951 0
7.92751 5.71056 0
5.42712 -0.214691 0
7.05373 -2.2393 0
1.36592 -4.3686 0
1.46158 -2.36475 0
-6.51059 1.67759 0
-8.11114 -0.14118 0
-5.74376 5.3256 0
-7.04867 4.19289 0
7.54907 2.45664 0
9.92247 0.724168 0
-12.7092 8.04201 0
-9.76305 8.16841 0
13.0583 8.22242 0
11.0175 8.12212 0
-3.04055 3.87067 0
-3.94868 2.60458 0
-9.76253 2.10477 0
-7.04929 3.65754 0
-3.86166 7.01141 0
-4.6463 5.19599 0
-7.18874 7.47685 0
-6.76579 6.56849 0
8.58404 7.8172 0
8.84359 8.4082 0
-0.773957 12.4334 0
-0.689326 11.7823 0
12.8059 11.7781 0
10.4307 12.8774 0
10.0671 15.5086 0
2.40757 11.5987 0
8.288 9.52527 0
9.65218 10.4209 0
-7.79852 9.002 0
-8.13101 9.89577 0
-2.17965 14.6074 0
1.24684 13.911 0
-10.15 14.7293 0
-4.42417 13.03 0
9.65146 10.4233 0
12.8599 10.9866 0
-10.5256 16.3633 0
-12.5186 17.2172 0
-12.8108 11.9299 0
-9.63938 11.7246 0
11.4498 20.6113 0
9.54755 18.8433 0
8.89551 11.891 0
6.85178 11.9084 0
-9.63897 11.7221 0
-7.77562 10.7196 0
2.85907 14.6351 0
4.69545 13.2805 0
-4.86846 11.7426 0
-4.03285 10.8279 0
5.39807 13.1354 0
4.55734 11.5083 0
13.0288 13.6908 0
10.6416 13.5976 0
-2.88542 14.2581 0
-4.94073 14.0451 0
-2.22245 25.993 0
0.360952 15.1859 0
-7.00778 12.2508 0
-4.9171 13.4631 0
-12.807 12.7837 0
-9.86756 12.8996 0
6.35525 17.4277 0
8.37189 15.9199 0
-0.768254 13.9048 0
-0.458407 12.7367 0
-8.88442 21.1266 0
-10.8217 21.9765 0
0.633192 26.9692 0
2.70977 15.6305 0
-2.96905 16.6066 0
-8.30819 21.5864 0
-10.7134 15.3406 0
-12.8578 15.2138 0
-6.80176 16.0003 0
-6.5073 14.636 0
-6.84724 12.7626 0
-7.66718 14.0072 0
12.9975 15.9337 0
10.637 16.1124 0
-7.54664 23.367 0
-8.65619 25.0491 0
6.54583 12.918 0
5.39974 13.1335 0
9.80976 17.5092 0
8.28741 16.8126 0
4.43018 14.281 0
6.86213 17.0741 0
-1.93838 15.6499 0
-0.131873 15.9601 0
8.0611 26.0261 0
6.77597 24.3218 0
0.690889 15.1472 0
1.82288 16.1192 0
4.50655 25.107 0
4.45439 16.6632 0
13.0196 14.8174 0
10.3493 14.8601 0
-8.47521 16.0199 0
-8.78486 15.0362 0
-9.72205 13.2097 0
-7.74366 13.6236 0
-8.78402 20.391 0
-6.24582 17.4484 0
0.0354513 27.1253 0
-0.321296 28.9865 0
2.21633 13.8553 0
3.01818 12.5342 0
-3.93815 15.971 0
-4.07401 15.1724 0
-11.3928 20.5842 0
-9.42062 19.8729 0
0.394472 17.3653 0
0.0351927 17.1174 0
8.14266 14.1876 0
7.61581 14.9836 0
9.14489 12.5733 0
7.99799 13.7462 0
-8.45502 22.4901 0
-10.0754 23.3844 0
-2.41996 16.488 0
-1.38146 17.6705 0
2.02634 17.2111 0
3.73579 17.5162 0
6.72472 14.9851 0
6.39503 15.494 0
-6.84451 19.3788 0
-6.48303 19.5999 0
-9.03352 17.5951 0
-6.59613 16.9508 0
4.3676 16.3539 0
5.15822 15.3881 0
-6.19571 23.6309 0
-3.44669 18.1152 0
6.82291 27.0392 0
5.77449 25.3673 0
-3.38989 28.2026 0
-2.75072 26.1209 0
8.40088 18.9571 0
7.60123 17.3449 0
10.0667 23.2131 0
8.12503 22.2711 0
4.24254 19.5423 0
5.84066 20.2791 0
1.7148 19.2951 0
4.04985 19.6127 0
1.14989 24.4046 0
-1.66151 24.5647 0
-2.29843 23.0719 0
-3.50297 20.0535 0
-6.4073 16.4013 0
-4.2769 15.1157 0
-6.80583 23.1594 0
-6.71423 21.0396 0
4.40609 23.3995 0
5.65316 21.7143 0
-11.8293 19.272 0
-9.22091 18.4803 0
-9.10227 18.5997 0
-7.00759 18.5486 0
-0.0526611 19.1868 0
0.38259 18.7975 0
2.91366 27.0145 0
1.60105 21.8856 0
3.82292 28.8044 0
3.41603 27.2119 0
-6.36474 26.902 0
-5.44916 25.0439 0
-5.31132 17.4479 0
-4.81903 18.2686 0
8.14917 19.5731 0
6.81187 19.104 0
2.02541 17.2135 0
2.46163 18.6661 0
9.97945 18.2043 0
12.2991 18.9556 0
11.0562 21.2534 0
8.28822 19.503 0
-5.03967 24.9773 0
-3.07597 21.1269 0
-1.74682 18.7484 0
-2.87351 18.8852 0
2.83939 22.6018 0
3.3007 22.4489 0
-5.21232 19.2025 0
-4.57018 20.0627 0
4.45187 18.6339 0
6.24754 18.2448 0
-0.727341 22.0491 0
0.803944 22.6556 0
1.37327 25.6064 0
2.65471 25.8686 0
-1.43998 26.8145 0
-1.92196 28.6382 0
-0.538437 26.5677 0
-0.202714 25.0952 0
-7.98402 25.6664 0
-6.26101 24.315 0
-1.47357 19.1002 0
-2.77497 21.2159 0
-4.63045 22.4759 0
-4.40215 22.527 0
4.50446 25.1084 0
3.46198 24.8786 0
3.87026 21.1699 0
5.55452 21.7531 0
6.43069 24.3142 0
5.37595 23.026 0
9.35706 24.464 0
7.4896 23.4874 0
-3.19605 25.6912 0
-2.39085 23.043 0
5.92023 27.7215 0
4.65437 26.3947 0
2.03589 20.6076 0
3.64197 20.7751 0
-4.87309 27.6439 0
-4.2275 25.9708 0
1.15178 24.4063 0
2.62485 23.7013 0
0.26077 20.697 0
1.46768 21.1489 0
-6.35862 21.392 0
-5.18333 21.2413 0
7.96037 21.1181 0
6.03725 20.7303 0
-0.667624 21.2992 0
-1.82217 20.563 0
10.6485 22.0439 0
8.22555 20.9117 0
-0.828338 24.4639 0
-0.127907 22.6304 0
-4.0976 23.4736 0
-3.16846 23.7342 0
-1.82384 24.978 0
-3.17582 24.2563 0
-8.32011 25.3578 0
-6.4974 23.3978 0

CELLS 630 1890
2 160 0
2 1 2
2 2 3
2 161 4
2 4 5
2 5 0
2 2 6
2 6 7
2 7 8
2 8 9
2 3 9
2 9 144
2 10 11
2 11 12
2 145 4
2 12 13
2 13 14
2 15 14
2 5 156
2 7 16
2 17 178
2 147 17
2 19 18
2 19 8
2 20 19
2 21 20
2 10 21
2 153 125
2 23 22
2 24 23
2 24 124
2 127 24
2 26 25
2 26 13
2 27 26
2 28 27
2 29 28
2 14 168
2 30 17
2 30 31
2 32 31
2 32 146
2 18 33
2 33 148
2 128 35
2 20 152
2 35 36
2 37 36
2 22 37
2 37 163
2 38 131
2 175 40
2 40 23
2 126 40
2 42 41
2 25 192
2 43 42
2 43 44
2 193 27
2 45 44
2 46 45
2 47 171
2 173 47
2 48 186
2 48 49
2 49 50
2 34 50
2 50 51
2 52 129
2 36 52
2 52 53
2 53 162
2 54 38
2 55 54
2 139 55
2 57 56
2 39 57
2 58 57
2 59 133
2 41 59
2 59 196
2 61 60
2 197 43
2 199 61
2 62 63
2 195 185
2 49 64
2 64 65
2 177 65
2 51 134
2 67 66
2 68 67
2 53 136
2 69 68
2 70 69
2 55 137
2 165 70
2 233 71
2 73 72
2 140 56
2 215 73
2 74 75
2 58 142
2 76 75
2 77 76
2 60 143
2 77 198
2 78 79
2 79 62
2 65 80
2 80 81
2 81 176
2 67 200
2 82 83
2 83 191
2 69 208
2 84 85
2 164 216
2 71 225
2 86 279
2 158 250
2 88 89
2 290 252
2 254 214
2 90 91
2 91 211
2 91 92
2 92 93
2 93 210
2 189 93
2 94 95
2 95 78
2 96 1
2 96 97
2 97 6
2 97 98
2 16 98
2 179 99
2 99 30
2 31 100
2 187 101
2 101 48
2 101 102
2 102 64
2 102 103
2 103 80
2 81 104
2 104 105
2 83 105
2 105 190
2 85 106
2 217 120
2 87 107
2 108 88
2 255 122
2 109 90
2 109 110
2 92 110
2 110 188
2 111 94
2 95 112
2 112 113
2 113 79
2 113 114
2 63 114
2 114 194
2 115 46
2 116 47
2 116 172
2 117 29
2 169 118
2 118 15
2 157 119
2 0 119
2 119 180
2 99 100
2 103 104
2 249 292
2 111 112
2 183 116
2 120 204
2 121 224
2 120 121
2 122 242
2 123 282
2 122 123
2 124 11
2 125 21
2 124 125
2 41 126
2 127 25
2 126 127
2 34 128
2 129 51
2 128 129
2 203 130
2 131 39
2 130 131
2 39 132
2 133 58
2 132 133
2 134 66
2 135 68
2 134 135
2 136 135
2 137 70
2 136 137
2 207 138
2 130 139
2 139 138
2 140 73
2 75 141
2 231 140
2 142 141
2 143 77
2 142 143
2 144 10
2 145 12
2 144 145
2 146 33
2 147 18
2 146 147
2 148 34
2 149 35
2 148 149
2 221 150
2 151 74
2 150 240
2 152 149
2 153 22
2 152 153
2 94 154
2 155 78
2 154 155
2 156 15
2 157 118
2 156 157
2 266 87
2 357 222
2 159 158
2 181 160
2 161 3
2 160 161
2 162 54
2 163 174
2 162 163
2 164 121
2 71 165
2 165 164
2 391 166
2 247 167
2 166 337
2 168 29
2 169 117
2 168 169
2 44 170
2 171 182
2 170 171
2 172 117
2 173 28
2 172 173
2 174 38
2 175 132
2 174 175
2 176 82
2 177 66
2 176 177
2 178 16
2 179 98
2 178 179
2 180 96
2 181 1
2 180 181
2 182 46
2 183 115
2 182 183
2 61 184
2 185 63
2 184 185
2 186 32
2 187 100
2 186 187
2 188 111
2 189 154
2 188 189
2 190 106
2 191 84
2 190 191
2 192 42
2 193 170
2 192 193
2 194 115
2 195 45
2 194 195
2 196 60
2 197 184
2 196 197
2 198 155
2 199 62
2 198 199
2 200 82
2 201 84
2 200 201
2 72 202
2 203 56
2 202 203
2 204 234
2 205 235
2 205 204
2 261 206
2 167 207
2 206 245
2 208 201
2 209 85
2 208 209
2 210 76
2 227 74
2 210 211
2 236 72
2 213 167
2 239 274
2 214 123
2 230 215
2 241 237
2 216 209
2 217 106
2 216 217
2 89 218
2 219 108
2 218 219
2 220 109
2 221 226
2 220 221
2 222 358
2 320 223
2 223 222
2 224 298
2 264 225
2 225 224
2 226 90
2 227 211
2 226 227
2 228 288
2 289 229
2 228 268
2 151 230
2 231 141
2 230 231
2 229 232
2 233 138
2 265 233
2 234 278
2 235 86
2 235 234
2 236 212
2 257 237
2 291 236
2 248 284
2 246 239
2 271 295
2 240 151
2 241 215
2 240 258
2 242 220
2 243 150
2 242 243
2 277 244
2 232 306
2 245 267
2 212 246
2 247 202
2 246 247
2 253 248
2 301 249
2 249 248
2 374 238
2 251 228
2 294 354
2 252 302
2 300 253
2 335 309
2 218 254
2 255 219
2 254 255
2 280 256
2 259 281
2 256 257
2 258 241
2 259 257
2 283 259
2 260 107
2 261 87
2 260 261
2 238 319
2 375 318
2 263 262
2 299 264
2 232 265
2 265 264
2 223 356
2 244 269
2 267 266
2 268 229
2 321 267
2 313 307
2 212 270
2 271 239
2 270 271
2 272 316
2 273 388
2 272 273
2 274 213
2 275 251
2 274 275
2 384 276
2 277 312
2 276 336
2 278 260
2 279 206
2 278 279
2 89 280
2 281 214
2 280 281
2 282 243
2 283 258
2 282 283
2 284 293
2 311 285
2 308 284
2 250 286
2 287 159
2 286 287
2 288 213
2 289 207
2 288 289
2 285 350
2 333 291
2 291 290
2 292 338
2 293 340
2 293 292
2 403 345
2 330 370
2 295 294
2 86 296
2 297 245
2 296 297
2 298 205
2 299 296
2 298 299
2 262 300
2 301 263
2 300 301
2 302 270
2 303 295
2 302 303
2 304 275
2 305 277
2 304 305
2 306 297
2 307 269
2 306 307
2 308 341
2 315 252
2 309 308
2 88 310
2 311 332
2 310 311
2 312 251
2 313 268
2 312 313
2 419 314
2 309 366
2 315 363
2 316 394
2 276 317
2 317 316
2 318 398
2 319 392
2 319 318
2 359 320
2 269 321
2 321 320
2 322 390
2 323 166
2 322 323
2 324 368
2 369 353
2 324 325
2 343 326
2 327 324
2 326 355
2 372 250
2 329 416
2 328 377
2 330 329
2 382 314
2 361 381
2 332 256
2 333 237
2 332 333
2 262 334
2 335 253
2 334 404
2 336 365
2 407 325
2 389 387
2 338 108
2 339 310
2 338 339
2 340 339
2 341 285
2 340 341
2 303 362
2 343 294
2 342 343
2 344 158
2 371 328
2 344 373
2 346 159
2 347 344
2 346 347
2 348 378
2 349 379
2 348 349
2 350 290
2 351 315
2 350 351
2 411 352
2 325 353
2 353 352
2 354 304
2 355 327
2 354 355
2 356 266
2 357 107
2 356 357
2 358 410
2 352 359
2 359 358
2 349 360
2 331 361
2 360 414
2 362 380
2 331 363
2 363 362
2 345 364
2 386 365
2 365 364
2 366 351
2 367 331
2 366 367
2 368 305
2 369 244
2 368 369
2 402 408
2 345 371
2 413 371
2 372 400
2 401 385
2 373 372
2 286 376
2 375 287
2 374 375
2 376 374
2 377 412
2 376 377
2 378 418
2 314 379
2 379 378
2 380 342
2 393 330
2 409 380
2 405 382
2 383 361
2 382 383
2 395 384
2 385 373
2 384 385
2 397 386
2 387 337
2 386 387
2 388 317
2 389 336
2 388 389
2 390 272
2 391 273
2 390 391
2 392 399
2 381 393
2 417 415
2 394 346
2 395 347
2 394 395
2 326 396
2 397 327
2 396 397
2 398 348
2 399 360
2 398 399
2 400 328
2 401 364
2 400 401
2 342 402
2 403 396
2 402 403
2 404 335
2 405 367
2 404 405
2 323 406
2 407 337
2 406 407
2 408 370
2 409 381
2 408 409
2 410 322
2 411 406
2 410 411
2 412 329
2 413 370
2 412 413
2 414 383
2 415 393
2 414 415
2 416 238
2 417 392
2 416 417
2 418 263
2 419 334
2 418 419

CELL_TYPES 630
3
3
3
3
3
3
3
3
3
3
3
3
3
3
3
3
3
3
3
3
3
3
3
3
3
3
3
3
3
3
3
3
3
3
3
3
3
3
3
3
3
3
3
3
3
3
3
3
3
3
3
3
3
3
3
3
3
3
3
3
3
3
3
3
3
3
3
3
3
3
3
3
3
3
3
3
3
3
3
3
3
3
3
3
3
3
3
3
3
3
3
3
3
3
3
3
3
3
3
3
3
3
3
3
3
3
3
3
3
3
3
3
3
3
3
3
3
3
3
3
3
3
3
3
3
3
3
3
3
3
3
3
3
3
3
3
3
3
3
3
3
3
3
3
3
3
3
3
3
3
3
3
3
3
3
3
3
3
3
3
3
3
3
3
3
3
3
3
3
3
3
3
3
3
3
3
3
3
3
3
3
3
3
3
3
3
3
3
3
3
3
3
3
3
3
3
3
3
3
3
3
3
3
3
3
3
3
3
3
3
3
3
3
3
3
3
3
3
3
3
3
3
3
3
3
3
3
3
3
3
3
3
3
3
3
3
3
3
3
3
3
3
3
3
3
3
3
3
3
3
3
3
3
3
3
3
3
3
3
3
3
3
3
3
3
3
3
3
3
3
3
3
3
3
3
3
3
3
3
3
3
3
3
3
3
3
3
3
3
3
3
3
3
3
3
3
3
3
3
3
3
3
3
3
3
3
3
3
3
3
3
3
3
3
3
3
3
3
3
3
3
3
3
3
3
3
3
3
3
3
3
3
3
3
3
3
3
3
3
3
3
3
3
3
3
3
3
3
3
3
3
3
3
3
3
3
3
3
3
3
3
3
3
3
3
3
3
3
3
3
3
3
3
3
3
3
3
3
3
3
3
3
3
3
3
3
3
3
3
3
3
3
3
3
3
3
3
3
3
3
3
3
3
3
3
3
3
3
3
3
3
3
3
3
3
3
3
3
3
3
3
3
3
3
3
3
3
3
3
3
3
3
3
3
3
3
3
3
3
3
3
3
3
3
3
3
3
3
3
3
3
3
3
3
3
3
3
3
3
3
3
3
3
3
3
3
3
3
3
3
3
3
3
3
3
3
3
3
3
3
3
3
3
3
3
3
3
3
3
3
3
3
3
3
3
3
3
3
3
3
3
3
3
3
3
3
3
3
3
3
3
3
3
3
3
3
3
3
3
3
3
3
3
3
3
3
3
3
3
3
3
3
3
3
3
3
3
3
3
3
3
3
3
3
3
3
3
3
3
3
3
3
3
3
3
3
3
3
3
3
3
3
3
3
3
3
3
3
3
3
3
3
3
3
3
3
3
3
3
3
3
3
3
3
3
3
3
3
3
3
3
3
3
3
3
3
3
3
3
3
3
3
3
3
3
3
3
3
3
3
3
3
3
3
3
3
3
3
3
3
3
3
3
3
3
3
3
3
3
3

CELL_DATA 630
SCALARS current_Length float
LOOKUP_TABLE default
0.898756
1.01116
1.46598
1.4899
1.63306
1.47599
0.556558
1.02965
1.73766
1.1341
1.00134
1.23863
1.80209
1.47886
0.438994
0.204963
1.6817
1.0123
0.0485699
0.604664
0.561853
0.771338
0.327117
0.68573
1.26172
1.12722
0.796091
1.04289
1.02147
1.95152
0.361443
0.673631
1.81806
0.523904
1.36207
1.09364
0.767952
0.84326
1.08394
0.9938
1.31802
0.850577
2.03853
0.00249731
1.36071
1.56716
1.36911
1.01536
0.773116
0.886884
0.685622
0.694166
1.17579
1.56517
1.71485
1.06633
1.05282
1.46607
1.20323
1.46821
1.04991
0.63123
0.739046
0.550379
1.04188
0.801606
1.18085
2.12287
1.67749
1.53269
0.743732
1.15893
1.60701
0.965723
0.862656
0.620556
1.17919
1.66008
0.880104
1.1342
0.912534
1.79926
0.365107
0.690488
0.586968
0.535347
1.06274
0.0025024
1.41948
0.00249293
1.326
1.64046
0.850706
0.765981
1.09655
1.63245
0.0935977
1.53659
0.277433
0.852712
1.41189
1.19463
0.711657
1.33378
0.306113
0.581892
1.26136
0.446261
0.841152
1.55414
1.05929
1.11863
1.03273
1.20642
1.09341
1.62731
0.836754
0.724419
1.44043
0.55502
1.33939
0.389336
1.15891
0.831307
0.74511
2.04931
0.674194
1.42078
2.13181
0.00251441
1.14237
1.03721
2.05161
1.33646
2.5385
0.949247
2.66803
1.13691
2.2218
2.24393
1.63822
3.10125
0.217417
3.16203
1.33497
2.05116
2.15247
0.844229
2.13319
2.08837
2.19615
0.78355
2.30349
2.85818
1.33613
2.32855
1.40408
2.29136
1.26282
1.99989
2.01681
1.42034
2.65685
0.993832
2.92027
0.774827
2.53267
2.61316
1.76122
2.78872
0.632663
2.74097
1.40577
2.03199
1.57113
1.95232
2.10732
1.50488
2.15131
1.04573
0.0100555
0.596962
3.5426
1.09467
1.0968
2.46488
1.41358
1.61325
1.4064
0.434643
1.01749
1.80231
1.77631
1.07392
1.02028
1.30975
1.31196
0.930799
1.4613
1.33336
1.36715
0.972293
1.11992
2.03848
1.07706
1.64432
1.18624
0.303801
2.15963
0.0025079
1.66596
1.52175
1.31601
0.88969
1.6871
1.35543
0.597392
1.43956
1.78941
1.62432
1.65394
1.93338
0.772755
1.1086
2.17109
0.43825
0.601303
2.38301
0.00250123
1.26888
1.63759
1.37993
1.78923
1.58863
0.692555
1.72633
2.69321
0.873804
1.86082
1.30861
0.695081
1.03394
1.42936
1.11372
1.12544
1.64011
0.554753
0.323286
3.06403
0.686813
1.07719
2.04879
0.639935
1.70581
2.81485
1.10589
0.97824
1.42084
0.767821
0.981362
2.63914
1.53067
0.837618
1.1507
0.217834
1.05816
1.80863
0.752345
1.74546
2.59709
2.09965
1.15119
2.00613
0.79391
1.87109
2.42275
1.1615
0.957008
1.72796
0.328899
1.06391
2.93845
1.40989
0.125395
2.94887
1.5392
0.677069
2.0433
1.00371
0.706914
1.5581
0.920459
0.508533
3.12614
1.05598
1.10509
1.97773
1.09415
1.93183
1.002
1.53784
1.73887
0.645481
2.15583
1.63456
0.656661
1.92563
0.75048
2.61728
0.830235
2.07667
1.74442
1.24761
1.53517
1.63193
1.21116
1.22296
0.953612
1.10988
1.41287
0.332199
0.690311
1.3619
0.582561
0.00251085
1.23353
3.25746
1.15657
1.2148
2.16816
1.226
0.00251417
3.17804
0.753154
1.15231
2.59699
0.726426
1.0549
2.04381
1.41234
0.897235
2.1159
1.01055
1.83581
1.61051
1.50441
0.899942
1.23895
0.717447
2.02062
1.8306
1.12663
0.966208
2.389
0.787473
1.67431
1.49953
0.742363
1.70772
1.16933
1.02068
0.656123
0.536365
0.853817
0.950117
2.94177
2.04884
2.27624
0.896687
1.57659
0.43766
1.2085
0.737222
1.59349
2.11551
1.13452
1.00647
1.63799
0.561747
0.915541
1.45812
1.03986
2.03188
2.14813
1.67357
1.5192
1.39565
2.05332
1.31939
0.391141
1.91935
0.905706
2.36725
0.543534
1.53118
2.01508
1.67173
0.0025121
1.16618
0.771256
0.618057
1.67419
1.0351
0.868466
1.24134
1.0701
0.917709
1.83293
1.59989
0.345361
2.1345
1.35551
1.01264
1.49202
0.00250275
0.321318
1.71052
1.11654
0.707198
2.67072
1.32402
1.39923
1.03134
0.342558
1.24294
2.02122
0.820774
0.608584
2.18774
0.617796
1.99997
1.89509
0.971082
1.11715
1.54543
0.934499
0.21066
0.810139
1.38289
1.31244
2.09649
0.748647
1.87468
0.436509
1.93973
1.20347
0.954517
1.32125
0.46453
1.64044
1.2626
2.18753
1.85075
0.966558
1.52079
1.57378
1.11075
1.11532
1.73646
0.891092
1.64769
0.60636
0.846096
1.58244
0.423715
0.565364
0.580982
2.52111
1.80878
1.32498
1.24812
0.771126
1.3314
0.959937
1.13147
1.29437
1.97349
1.58495
0.61882
2.17769
0.557411
0.787151
1.79963
1.43814
0.914397
2.15807
0.932182
1.02794
1.75981
1.42208
0.205146
0.97642
1.55077
1.53448
1.51871
1.62297
1.94527
0.313875
0.56254
1.25965
2.48828
0.769373
1.68515
1.82302
1.45789
0.492179
1.28546
0.952606
0.904798
2.72596
0.168346
1.33818
2.0953
1.13816
1.43226
0.583962
1.49461
1.78294
1.1748
2.17557
0.539762
1.64367
2.03682
1.09102
2.07144
2.01665
1.38089
0.957023
1.34072
1.52456
1.41721
0.00250383
1.84893
1.51668
0.715468
1.19192
2.43832
0.889397
0.155723
3.27497
0.414854
1.15523
1.77443
0.445454
1.32704
1.13498
1.43054
1.40007
0.485979
1.01328
1.06725
1.07344
1.32742
0.82412
1.83734
1.10656
1.10828
0.932189
1.22042
1.44458
1.30799
0.800182
1.63813
1.88631
0.934708
0.888762
1.51028
0.912617
0.687182
2.18977
1.42355
0.0968374
1.50372
1.35279
1.92845
0.233936
1.29497
1.27742
1.06751
0.456051
0.105974
1.78234
1.24082
1.03927
1.66486
2.02967
1.09793
2.1074
1.06868
1.86709
1.95712
2.36042
1.48369
1.83377
1.35121
1.23194
1.6148
1.66599
1.28321
1.79335
0.00250194
1.12029
1.63305
1.54238
0.784797
1.28872
0.500696
1.32856
1.18491
1.16472
1.05629
1.96182
0.752337
1.15505
1.36931
1.30598
0.336044
2.67448
0.839243
0.835002
1.96275
0.994443
1.04042
0.964993
3.29751
3.35027
0
32
0
0

SCALARS edge_force float
LOOKUP_TABLE default
0.5
0.5
0.5
0.5
0.5
0.5
0.5
0.5
0.5
0.5
0.5
0.5
0.5
0.5
0.5
0.5
0.5
0.5
0.5
0.5
0.5
0.5
0.5
0.5
0.5
0.5
0.5
0.5
0.5
0.5
0.5
0.5
0.5
0.5
0.5
0.5
0.5
0.5
0.5
0.5
0.5
0.5
0.5
0.5
0.5
0.5
0.5
0.5
0.5
0.5
0.5
0.5
0.5
0.5
0.5
0.5
0.5
0.5
0.5
0.5
0.5
0.5
0.5
0.5
0.5
0.5
0.5
0.5
0.5
0.5
0.5
0.5
0.5
0.5
0.5
0.5
0.5
0.5
0.5
0.5
0.5
0.5
0.5
0.5
0.5
0.5
0.5
0.5
0.5
0.5
0.5
0.5
0.5
0.5
0.5
0.5
0.5
0.5
0.5
0.5
0.5
0.5
0.5
0.5
0.5
0.5
0.5
0.5
0.5
0.5
0.5
0.5
0.5
0.5
0.5
0.5
0.5
0.5
0.5
0.5
0.5
0.5
0.5
0.5
0.5
0.5
0.5
0.5
0.5
0.5
0.5
0.5
0.5
2
0.5
2
0.5
2
0.5
0.5
2
0.5
2
0.5
2
0.5
0.5
2
0.5
2
0.5
2
0.5
0.5
2
0.5
2
0.5
2
0.5
0.5
2
0.5
2
0.5
2
0.5
0.5
2
0.5
2
0.5
2
0.5
2
2
2
2
2
2
2
0.5
0.5
2
0.5
0.5
0.5
0.5
0.5
0.5
0.5
0.5
0.5
0.5
0.5
0.5
0.5
0.5
0.5
0.5
0.5
0.5
0.5
0.5
0.5
0.5
0.5
0.5
0.5
0.5
0.5
0.5
0.5
0.5
0.5
0.5
0.5
0.5
0.5
0.5
0.5
0.5
0.5
0.5
0.5
0.5
0.5
0.5
0.5
0.5
0.5
0.5
0.5
0.5
0.5
2
0.5
0.5
2
0.5
0.5
0.5
0.5
0.5
0.5
0.5
0.5
0.5
0.5
0.5
0.5
0.5
0.5
2
0.5
0.5
0.5
0.5
2
0.5
0.5
0.5
0.5
0.5
0.5
0.5
0.5
0.5
2
0.5
2
0.5
0.5
0.5
2
0.5
0.5
0.5
0.5
0.5
2
0.5
2
0.5
0.5
2
0.5
0.5
0.5
0.5
0.5
2
0.5
0.5
0.5
0.5
0.5
0.5
0.5
0.5
0.5
0.5
0.5
0.5
0.5
0.5
2
0.5
0.5
0.5
0.5
0.5
0.5
0.5
0.5
0.5
0.5
0.5
0.5
0.5
0.5
0.5
0.5
0.5
0.5
2
0.5
0.5
2
0.5
2
0.5
0.5
2
0.5
0.5
0.5
0.5
0.5
0.5
0.5
0.5
0.5
0.5
0.5
0.5
0.5
0.5
0.5
0.5
0.5
2
0.5
0.5
0.5
0.5
0.5
0.5
0.5
0.5
0.5
0.5
0.5
2
0.5
0.5
0.5
0.5
0.5
0.5
0.5
0.5
0.5
2
0.5
0.5
0.5
0.5
0.5
0.5
0.5
0.5
2
0.5
0.5
0.5
0.5
0.5
0.5
0.5
2
0.5
0.5
0.5
2
0.5
0.5
0.5
0.5
0.5
0.5
0.5
0.5
0.5
0.5
0.5
0.5
0.5
2
0.5
0.5
0.5
0.5
0.5
0.5
0.5
0.5
2
0.5
0.5
0.5
0.5
0.5
0.5
0.5
0.5
0.5
0.5
0.5
0.5
2
0.5
0.5
0.5
0.5
0.5
0.5
0.5
2
0.5
0.5
0.5
0.5
0.5
0.5
0.5
0.5
0.5
0.5
0.5
0.5
2
0.5
0.5
0.5
0.5
0.5
0.5
0.5
0.5
0.5
0.5
0.5
0.5
0.5
0.5
0.5
0.5
0.5
0.5
0.5
0.5
0.5
0.5
2
0.5
0.5
2
0.5
0.5
0.5
0.5
0.5
2
0.5
0.5
0.5
0.5
0.5
0.5
0.5
0.5
0.5
0.5
0.5
0.5
0.5
0.5
0.5
0.5
0.5
0.5
0.5
0.5
0.5
0.5
0.5
2
0.5
0.5
0.5
0.5
0.5
0.5
0.5
0.5
0.5
0.5
0.5
2
0.5
0.5
2
0.5
0.5
0.5
0.5
0.5
0.5
0.5
0.5
0.5
0.5
0.5
0.5
2
0.5
2
0.5
0.5
0.5
0.5
0.5
0.5
0.5
0.5
0.5
0.5
0.5
0.5
0.5
0.5
0.5
0.5
0.5
0.5
0.5
0.5
0.5
0.5
0.5
0.5
2
0.5
0.5
0.5
0.5
2
0.5
0.5
0.5
0.5
0.5
0.5
0.5
0.5
0.5
0.5
0.5
0.5
0.5
0.5
0.5
0.5
0.5
2
0.5
0.5
0.5
0.5
0.5
2
0.5
0.5
0.5
0.5
0.5
2
0.5
0.5
0.5
0.5
0.5
0.5
0.5
0.5
0.5
0.5
0.5
0.5
0.5
0.5
0.5
0.5
0.5
2
0.5
0.5
0.5
0.5
0.5
0.5
0.5
0.5
0
0
0
0
0
0
