# vtk DataFile Version 2.0
2D-vertex
ASCII
DATASET UNSTRUCTURED_GRID
POINTS 364 float
0.203766 -2.0243 0
2.73353 -1.86185 0
3.13636 -0.946966 0
2.15669 0.126827 0
-0.185963 0.338039 0
-0.946029 -1.08912 0
3.71302 -0.923359 0
4.30522 -0.0775942 0
3.44083 1.39773 0
2.32512 1.09574 0
1.17089 2.31439 0
-0.562774 2.87833 0
-1.3713 1.64681 0
-1.59361 1.59979 0
-2.13169 0.0478896 0
-1.65466 -0.833517 0
4.8883 -0.245267 0
5.77155 0.640753 0
4.00088 2.1156 0
3.66058 2.04049 0
2.8504 2.97855 0
1.70004 2.92289 0
1.18176 6.31354 0
0.125629 6.28957 0
-0.6441 4.52082 0
-1.98592 3.76607 0
-1.96871 1.98644 0
-3.32425 1.72658 0
-3.82593 0.796098 0
-3.5437 0.0861652 0
6.86289 0.636535 0
7.53794 1.4085 0
7.35308 2.70667 0
5.19826 3.77847 0
5.7146 4.37655 0
3.35927 5.59343 0
2.68193 6.74918 0
1.66122 6.92569 0
0.652284 9.75605 0
-1.06505 9.72768 0
-0.72032 7.09358 0
-2.45627 6.27057 0
-3.44628 4.92459 0
-4.52661 5.0046 0
-5.23305 3.78217 0
-6.68626 3.53369 0
-6.98092 2.56115 0
-5.43044 1.10635 0
7.85262 3.4169 0
7.5453 4.37281 0
6.86538 4.73142 0
6.1903 6.73389 0
3.81802 7.79237 0
3.73821 8.52462 0
2.25595 9.91331 0
2.84083 10.7086 0
-2.10701 10.9635 0
-2.07793 10.3307 0
-3.27964 9.21228 0
-3.00629 7.26259 0
-4.78902 7.7402 0
-6.14328 6.60888 0
-8.12061 5.38327 0
-7.99814 4.78326 0
8.5168 4.83113 0
8.52251 4.85123 0
7.16819 6.776 0
7.55182 8.0794 0
6.37412 9.15564 0
6.58163 9.93323 0
5.90669 10.7676 0
5.81734 11.1677 0
-2.79492 13.2351 0
-3.00074 13.0551 0
-6.57405 11.15 0
-5.91968 10.1003 0
-6.65943 9.03077 0
-6.53094 8.704 0
-9.08116 6.05276 0
-8.92252 5.59121 0
10.0228 5.18895 0
10.3513 6.23684 0
9.62765 7.25034 0
10.7204 7.67334 0
10.4542 9.26664 0
10.6768 10.1139 0
9.5245 15.133 0
9.43493 17.9905 0
-8.68775 17.9363 0
-8.766 17.4377 0
-10.4582 11.1054 0
-10.1318 10.377 0
-10.4994 9.80928 0
-9.75786 8.55444 0
-10.5114 7.32795 0
-10.0804 6.22592 0
3.59853 -3.70039 0
4.83895 -3.16 0
5.71964 -2.74627 0
8.14318 -1.13382 0
9.46467 0.32708 0
10.8229 2.68128 0
10.9515 2.91301 0
11.6888 4.06208 0
12.4602 6.04387 0
12.6701 6.8966 0
12.7579 10.5569 0
11.2351 19.1442 0
-10.861 19.3534 0
-12.6491 11.3117 0
-12.6933 9.83579 0
-12.4621 7.10198 0
-11.6897 5.07193 0
-10.8664 3.8821 0
-10.239 3.05287 0
-9.26463 1.56307 0
-7.31612 -0.650065 0
-5.20839 -2.10859 0
-3.0801 -3.14442 0
-0.0606217 -4.01064 0
12.4046 12.6605 0
9.10005 12.0696 0
-12.3523 14.7532 0
-10.0519 14.67 0
-0.436111 4.24545 0
1.00411 4.34689 0
-1.98801 6.19153 0
-1.35686 4.52253 0
4.72826 5.80363 0
5.11548 6.75624 0
0.335655 11.1302 0
0.158427 10.21 0
-1.29055 8.29718 0
-2.64454 8.02854 0
6.18971 6.73632 0
5.39805 8.6063 0
4.43641 9.04152 0
4.36234 10.2332 0
2.45612 11.4678 0
2.45437 11.4661 0
-2.82544 11.3761 0
-4.41436 10.1098 0
-4.00159 9.30526 0
-4.88129 8.32828 0
1.26314 1.75345 0
-0.236085 0.745162 0
6.53901 2.91683 0
5.43482 1.29548 0
5.19612 3.77976 0
3.15988 4.50763 0
-9.25124 12.5306 0
-6.32669 11.6918 0
3.15746 4.50702 0
1.64215 5.16219 0
-9.68446 8.39784 0
-8.26973 7.64431 0
-0.999706 -1.11443 0
-1.45573 -3.74154 0
1.22038 23.6219 0
1.435 25.4319 0
1.05273 -1.68381 0
1.18289 -0.282726 0
2.64544 8.88936 0
1.43726 7.75639 0
8.95146 11.4611 0
5.97076 10.9015 0
5.15801 21.5995 0
0.477141 12.7444 0
-2.9443 -0.200589 0
-3.68178 -2.88139 0
-4.67857 2.80476 0
-5.54346 1.72706 0
-5.88865 -1.69665 0
-4.80184 0.667906 0
0.421652 8.25196 0
-0.639584 7.75868 0
9.57897 6.99692 0
7.96672 6.16621 0
5.57787 0.112908 0
7.22672 -1.85157 0
1.52649 -4.10762 0
1.59017 -2.12288 0
-6.52008 1.87444 0
-8.09445 0.0872785 0
-5.81662 5.48559 0
-7.10766 4.39494 0
7.6628 2.86862 0
10.0555 1.23353 0
-12.6361 8.51827 0
-9.75961 8.55263 0
12.9167 8.99 0
10.9231 8.78722 0
-3.0607 4.00291 0
-3.94585 2.76589 0
-9.76653 2.37072 0
-7.11176 3.87322 0
-3.91364 7.11336 0
-4.70071 5.34104 0
-7.23611 7.7208 0
-6.81796 6.75865 0
8.54555 8.31323 0
8.78522 8.95993 0
-0.84244 12.5488 0
-0.743476 11.8348 0
12.4046 12.8395 0
10.0422 13.5985 0
9.33255 16.3332 0
2.29427 11.757 0
8.1674 10.0198 0
9.48071 11.041 0
-7.83674 9.28152 0
-8.14197 10.2338 0
-2.2918 14.8231 0
1.06529 14.0234 0
-9.70584 15.3438 0
-4.34886 13.1641 0
9.48005 11.0434 0
12.5289 11.8417 0
-9.79122 17.1157 0
-11.5138 18.1868 0
-12.5232 12.6248 0
-9.53598 12.1812 0
9.139 21.726 0
7.93362 19.7591 0
8.71387 12.4657 0
6.66519 12.3237 0
-9.52813 12.1575 0
-7.74865 11.0265 0
2.60355 14.8469 0
4.47487 13.572 0
-4.86516 11.8812 0
-4.05713 10.924 0
5.12628 13.4711 0
4.42387 11.7646 0
12.3892 14.8174 0
10.1788 14.4474 0
-2.84765 14.5755 0
-4.74867 14.2379 0
-1.32938 23.0603 0
0.182286 15.3187 0
-6.94895 12.5325 0
-4.77479 13.5967 0
-12.4381 13.555 0
-9.67889 13.4062 0
5.33288 18.0322 0
7.66157 16.4535 0
-0.910368 14.0991 0
-0.570183 12.8164 0
-6.7841 21.6123 0
-8.11246 23.0032 0
0.557989 23.3304 0
2.36067 15.8864 0
-2.46928 17.4288 0
-6.04319 21.8263 0
-10.1673 16.0095 0
-12.18 16.1904 0
-6.33876 16.2842 0
-6.16522 14.8997 0
-6.73846 13.0601 0
-7.4012 14.3668 0
11.9566 17.2821 0
9.76263 17.0066 0
-4.37016 23.0015 0
-4.39113 24.9024 0
6.28882 13.3114 0
5.1277 13.469 0
8.6749 18.3064 0
7.41186 17.3945 0
4.11676 14.6293 0
6.05852 17.5333 0
-1.96973 15.971 0
-0.342168 16.1615 0
6.15547 23.9865 0
4.95887 22.3997 0
0.447484 15.2892 0
1.49196 16.2796 0
2.89396 22.3444 0
3.92213 17.3637 0
12.1995 16.0503 0
9.74394 15.6979 0
-7.92043 16.4761 0
-8.37584 15.4761 0
-9.48453 13.7377 0
-7.52416 13.9583 0
-6.93615 20.9919 0
-5.61977 17.6384 0
-0.342924 23.8596 0
-0.411867 25.516 0
2.00858 14.0152 0
2.87918 12.75 0
-3.56106 16.6484 0
-3.80521 15.3894 0
-9.31117 21.7133 0
-7.92801 20.6323 0
0.504799 17.7466 0
-0.161594 17.1865 0
7.71884 14.7103 0
7.0739 15.473 0
8.90094 13.1802 0
7.62228 14.2367 0
-5.77207 22.7362 0
-6.62955 24.1149 0
-2.46477 17.4271 0
-1.63759 18.0884 0
1.582 17.3641 0
3.19235 17.9269 0
6.23098 15.3873 0
5.72438 16.0241 0
-5.69714 19.6041 0
-4.70248 19.8037 0
-8.22826 18.1619 0
-5.99455 17.2101 0
3.83998 16.7285 0
4.76037 15.8415 0
-3.70825 21.6458 0
-3.01807 19.1066 0
4.22911 24.8501 0
3.84975 22.8827 0
-2.13766 25.3346 0
-1.71998 23.1736 0
7.07457 19.6087 0
6.65458 17.8108 0
7.33791 23.1439 0
5.93905 21.4156 0
3.33047 18.9185 0
4.50673 19.5544 0
1.1491 20.3852 0
2.27334 19.8989 0
0.319303 21.4224 0
-0.547392 21.2518 0
-1.33631 20.1064 0
-2.71904 19.8767 0
-5.87127 16.6818 0
-3.96723 15.3503 0
-3.71037 21.6445 0
-4.58008 20.7694 0
3.03323 21.1849 0
4.32972 20.8172 0
-10.2452 20.3734 0
-8.23059 19.157 0
-7.96476 19.3218 0
-6.14733 18.8015 0
-1.13378 19.5903 0
-0.0452961 19.4377 0
2.32556 22.613 0
1.13541 20.9246 0
2.94544 25.1665 0
2.46159 22.6589 0
-3.53101 25.0587 0
-2.92718 22.7665 0
-4.57393 17.6368 0
-4.00416 19.0198 0
6.36859 20.2481 0
5.29376 19.197 0
1.25559 17.7282 0
1.93447 19.809 0
8.66976 19.1087 0
10.4933 20.3025 0
8.27323 22.4112 0
6.69579 20.2164 0
-2.28464 22.6183 0
-1.85081 20.2662 0
-1.56498 18.3049 0
-2.72956 19.8496 0
CELLS 183 1214
5 0 160 161 4 5
6 7 8 9 3 2 6
6 145 4 161 3 9 144
8 5 4 145 12 13 14 15 156
8 7 16 178 17 147 18 19 8
7 144 9 8 19 20 21 10
6 24 124 125 153 22 23
8 25 26 13 12 11 124 24 127
7 14 13 26 27 28 29 168
6 32 146 147 17 30 31
7 18 33 148 149 152 20 19
5 20 152 153 125 21
7 22 37 163 174 175 40 23
5 24 23 40 126 127
5 26 25 192 193 27
7 28 27 193 170 171 47 173
9 146 32 186 48 49 50 34 148 33
5 52 36 35 128 129
6 36 52 53 162 163 37
6 38 54 55 139 130 131
7 40 175 132 133 59 41 126
6 42 41 59 196 197 43
7 44 43 197 184 185 195 45
8 49 64 65 177 66 134 51 50
7 51 134 135 136 53 52 129
6 53 136 137 55 54 162
8 55 137 70 165 71 233 138 139
7 57 56 140 231 141 142 58
7 59 133 58 142 143 60 196
6 61 60 143 77 198 199
5 65 80 81 176 177
6 67 200 201 208 69 68
7 69 208 209 216 164 165 70
5 71 225 264 265 233
8 73 72 236 291 333 237 241 215
5 211 91 92 93 210
8 77 76 210 93 189 154 155 198
5 97 6 2 1 96
5 98 16 7 6 97
5 99 30 17 178 179
4 186 187 101 48
5 102 64 49 48 101
5 103 80 65 64 102
6 104 105 83 82 176 81
4 191 83 105 190
5 217 120 121 164 216
5 122 123 214 254 255
5 110 92 91 90 109
5 93 92 110 188 189
5 113 79 78 95 112
5 114 63 62 79 113
5 114 194 195 185 63
4 116 172 173 47
5 118 15 14 168 169
5 119 0 5 156 157
5 180 181 160 0 119
4 100 31 30 99
4 104 81 80 103
5 249 292 293 284 248
4 112 95 94 111
5 47 171 182 183 116
6 120 204 205 298 224 121
5 122 242 243 282 123
5 124 11 10 21 125
6 126 41 42 192 25 127
5 128 34 50 51 129
6 130 203 56 57 39 131
5 132 39 57 58 133
5 134 66 67 68 135
6 136 135 68 69 70 137
8 138 207 167 247 202 203 130 139
5 140 73 215 230 231
6 142 141 75 76 77 143
5 144 10 11 12 145
4 146 33 18 147
5 148 34 128 35 149
7 150 221 226 227 74 151 240
7 152 149 35 36 37 22 153
5 154 94 95 78 155
4 156 15 118 157
4 223 356 357 222
6 160 181 1 2 3 161
5 162 54 38 174 163
6 164 121 224 225 71 165
6 166 273 317 276 336 337
4 168 29 117 169
6 170 44 45 46 182 171
5 172 117 29 28 173
6 174 38 131 39 132 175
6 176 82 200 67 66 177
4 178 16 98 179
4 180 96 1 181
4 182 46 115 183
6 184 61 199 62 63 185
5 186 32 31 100 187
5 188 111 94 154 189
5 190 106 85 84 191
6 192 42 43 44 170 193
5 194 115 46 45 195
5 196 60 61 184 197
6 198 155 78 79 62 199
6 200 82 83 191 84 201
6 202 72 73 140 56 203
4 204 234 235 205
6 206 261 87 266 267 245
5 208 201 84 85 209
6 210 76 75 74 227 211
6 239 246 247 167 213 274
6 214 123 282 283 259 281
5 216 209 85 106 217
5 218 89 88 108 219
5 220 109 90 226 221
5 222 358 359 320 223
5 224 298 299 264 225
5 226 90 91 211 227
5 228 288 289 229 268
6 230 151 74 75 141 231
7 232 229 289 207 138 233 265
5 234 278 279 86 235
7 236 212 270 302 252 290 291
6 253 248 284 308 309 335
6 240 151 230 215 241 258
5 242 220 221 150 243
6 244 277 312 313 307 269
6 246 212 236 72 202 247
5 248 253 300 301 249
8 239 274 275 304 354 294 295 271
6 252 302 303 362 363 315
4 254 218 219 255
5 256 280 281 259 257
6 258 241 237 257 259 283
4 260 107 87 261
5 318 319 238 286 287
7 264 299 296 297 306 232 265
6 321 267 266 356 223 320
6 268 229 232 306 307 313
5 270 212 246 239 271
4 272 316 317 273
6 274 213 288 228 251 275
8 276 347 344 345 326 355 327 336
5 278 260 261 206 279
6 280 89 218 254 214 281
6 282 243 150 240 258 283
5 284 293 340 341 308
5 286 250 158 159 287
5 288 213 167 207 289
7 290 350 285 311 332 333 291
5 292 338 339 340 293
7 328 329 330 342 343 326 345
6 296 86 279 206 245 297
6 298 205 235 86 296 299
4 300 262 263 301
5 302 270 271 295 303
6 304 275 251 312 277 305
7 306 297 245 267 321 269 307
6 308 341 285 350 351 309
7 310 88 89 280 256 332 311
5 312 251 228 268 313
8 314 334 335 309 351 315 363 331
5 316 346 347 276 317
5 318 348 349 360 319
7 320 359 352 353 244 269 321
5 322 272 273 166 323
6 324 305 277 244 353 325
5 326 343 294 354 355
5 328 250 286 238 329
6 330 329 238 319 360 361
5 332 256 257 237 333
5 334 262 300 253 335
5 336 327 324 325 337
5 338 108 88 310 339
6 340 339 310 311 285 341
6 362 303 295 294 343 342
5 344 158 250 328 345
5 346 159 158 344 347
6 348 263 262 334 314 349
5 350 290 252 315 351
6 352 323 166 337 325 353
6 354 304 305 324 327 355
5 356 266 87 107 357
5 358 322 323 352 359
5 360 349 314 331 361
6 362 342 330 361 331 363
CELL_TYPES 183
7
7
7
7
7
7
7
7
7
7
7
7
7
7
7
7
7
7
7
7
7
7
7
7
7
7
7
7
7
7
7
7
7
7
7
7
7
7
7
7
7
7
7
7
7
7
7
7
7
7
7
7
7
7
7
7
7
7
7
7
7
7
7
7
7
7
7
7
7
7
7
7
7
7
7
7
7
7
7
7
7
7
7
7
7
7
7
7
7
7
7
7
7
7
7
7
7
7
7
7
7
7
7
7
7
7
7
7
7
7
7
7
7
7
7
7
7
7
7
7
7
7
7
7
7
7
7
7
7
7
7
7
7
7
7
7
7
7
7
7
7
7
7
7
7
7
7
7
7
7
7
7
7
7
7
7
7
7
7
7
7
7
7
7
7
7
7
7
7
7
7
7
7
7
7
7
7
7
7
7
7
7
7
CELL_DATA 183
SCALARS cell_division_count float
LOOKUP_TABLE default
1
0
1
0
0
0
1
0
0
1
1
1
1
1
1
1
0
1
1
1
1
1
1
0
1
1
1
1
1
1
1
1
2
4
3
1
1
0
0
1
1
0
0
0
1
2
3
0
1
0
0
1
1
1
1
1
0
0
3
0
1
2
3
1
1
1
1
1
1
1
2
2
1
1
1
1
2
1
1
1
3
1
1
2
7
1
1
1
1
1
1
1
1
1
1
1
1
1
1
1
1
1
2
3
5
2
1
3
5
2
2
2
5
3
2
4
2
3
5
5
6
3
3
6
3
4
6
9
3
5
4
4
5
5
6
6
5
4
5
8
5
5
5
7
4
4
6
4
8
5
3
4
6
6
6
7
6
6
8
5
6
7
4
6
8
7
9
6
8
7
4
7
8
8
5
6
7
7
8
3
5
9
9
SCALARS cell_time float
LOOKUP_TABLE default
861
2.22229e+13
881
4.48239e+13
2.67348e+11
1.25633e+10
891
2.68223e+09
9.19769e+11
881
881
871
841
891
811
851
1.22687e+06
891
861
891
891
791
831
24673.4
891
891
891
891
891
781
841
781
741
481
631
731
871
1.00108e+18
2.94533e+15
841
831
105973
2235.76
947.338
821
721
521
938.006
831
3589.01
1206.18
811
851
861
871
841
1.12104e+13
22056.3
311
2927.96
841
761
581
891
891
891
891
891
891
891
771
651
891
881
881
881
711
871
871
871
11
861
861
721
81
861
851
851
841
841
841
841
841
831
831
831
821
811
811
791
781
781
771
641
461
741
731
581
361
721
721
721
11
301
711
331
651
641
371
331
221
601
581
211
581
301
311
1
521
371
501
501
201
311
201
231
431
211
401
51
371
371
361
61
351
331
101
81
61
311
301
301
301
291
231
31
221
211
91
41
41
21
191
181
21
171
11
101
91
81
81
61
61
51
41
41
31
21
21
11
11
11
1
SCALARS cell_area float
LOOKUP_TABLE default
3.24433
3.30189
3.29383
3.35888
3.35279
3.34391
3.3248
3.37805
3.3505
3.2817
3.33677
3.28623
3.37846
3.31694
3.30733
3.33197
3.40177
3.28536
3.338
3.38093
3.38436
3.33936
3.34116
3.37232
3.35581
3.36731
3.42158
3.39084
3.38494
3.32821
3.25154
3.30036
3.34134
3.31558
3.41629
3.25344
3.34992
3.25676
3.26558
3.25302
3.24352
3.2848
3.26663
3.28631
3.22634
3.29739
3.2685
3.27028
3.26639
3.25567
3.275
3.28006
3.22179
3.26208
3.2491
3.24593
3.21363
3.2221
3.26677
3.20273
3.25181
3.30979
3.28216
3.28134
3.33738
3.29025
3.37861
3.34131
3.28399
3.35394
3.42356
3.33314
3.35036
3.28751
3.24585
3.2768
3.33372
3.34745
3.23712
3.22683
3.22218
3.26104
3.32524
3.31969
3.28107
3.22767
3.29939
3.25749
3.36109
3.2898
3.2291
3.20722
3.22148
3.306
3.25755
3.25375
3.26508
3.32548
3.26955
3.30005
3.29304
3.26964
3.37399
3.24341
3.28504
3.25122
3.32408
3.35004
3.28417
3.28346
3.27108
3.27803
3.27306
3.27982
3.25272
3.28567
3.34387
3.37797
3.26969
3.38261
3.26109
3.3366
3.28691
3.31731
3.36841
3.2572
3.38011
3.37687
3.2234
3.26012
3.31483
3.21674
3.27873
3.34808
3.29365
3.32391
3.31384
3.22776
3.3251
3.34359
3.26334
3.27441
3.30852
3.23811
3.27354
3.31857
3.35401
3.27273
3.32679
3.30328
3.29344
3.21595
3.29532
3.31164
3.35223
3.29805
3.32002
3.27259
3.32783
3.2758
3.28977
3.33725
3.27176
3.30452
3.27967
3.23979
3.28144
3.29696
3.22436
3.26566
3.28123
3.29056
3.28715
3.25231
3.2786
3.30426
3.30045
3.29232
3.29989
3.25073
3.28117
3.26379
151
SCALARS cell_perimeter float
LOOKUP_TABLE default
6.92388
6.91236
7.00899
7.12083
7.07183
6.85036
7.04953
7.43353
6.89676
6.96674
7.36352
6.98183
6.83173
7.14904
6.99259
6.76532
7.13434
6.95574
6.98352
7.20196
6.90732
7.12604
7.14638
7.3911
7.42946
6.89152
8.04268
6.93691
6.8245
7.00192
6.96087
6.92568
8.18234
7.02234
6.99904
7.18307
7.63281
7.46572
7.75183
7.5672
8.17682
8.50283
8.03481
7.60806
7.34272
8.63681
7.33773
7.34584
7.84967
7.51776
7.90029
8.2047
7.71575
8.00419
7.63252
7.18838
7.38966
7.35383
7.1335
7.2994
7.64942
8.52469
7.74201
7.03119
7.01359
7.15558
6.97144
6.99234
7.08406
6.88176
7.9883
6.98829
7.06779
7.12124
7.2564
7.17672
7.70903
7.15036
6.93898
7.82487
7.43347
6.78349
7.01491
8.00679
6.78601
7.91057
6.81075
7.90057
6.97086
6.97281
7.72997
7.30208
7.58444
7.02918
7.85021
7.7917
7.25323
6.87282
8.05421
7.07558
7.08283
6.87792
7.19851
7.5603
6.86584
6.9766
6.80715
7.09748
7.06148
8.10026
7.53915
7.96899
7.70212
7.13081
7.19074
6.99842
6.95334
7.77454
7.52305
7.22472
7.0633
7.11344
8.1424
6.88743
7.28802
7.12086
6.93829
7.2841
7.32215
6.91011
7.20672
7.38339
7.27048
7.33864
6.92505
7.15461
7.02059
7.3119
6.8349
7.26974
7.50331
6.76879
7.39515
7.03711
7.09781
7.1074
7.34516
7.36594
6.9478
7.03459
7.01945
7.32436
7.00624
7.01213
6.84507
6.80331
7.47459
6.94919
7.10238
7.51122
7.44306
7.09801
7.2898
6.85112
7.21674
7.09099
7.49038
7.25548
6.92373
6.89534
7.64624
7.47263
7.06182
7.16467
7.5501
8.02313
7.00818
6.82863
7.1772
7.31845
7.68721
7.39576
143
SCALARS cell_frequency_modifier float
LOOKUP_TABLE default
6.95455e+16
2.02225e+13
5.66755e+12
8.81047e+12
1.1208e+12
5.27114e+10
4.01865e+07
2.80977e+09
1.30215e+12
7.7584e+11
2.10363e+09
1.34491e+09
363215
1.26817e+07
1.1344e+10
1.86211e+11
7.39479e+08
5.26018e+06
161310
1180.04
302185
5.46637e+06
1.45641e+08
8.92971e+06
141789
5899.54
516.71
1572.74
59085.6
226112
1.63194e+09
26736.5
1125.72
165.742
13.3512
1.49653e+06
39824.5
2.63704e+18
3.04172e+17
1.06192e+16
3.95984e+12
3.47694e+09
4.70274e+10
2.56185e+06
2.17602e+07
486.782
1349.94
372336
3.99955e+06
5.01665e+09
1.37989e+09
5.12545e+09
6.33974e+15
2.78871e+17
6.41569e+18
10000
1.71359e+15
4.82199e+09
100.007
5.28014e+08
3.95074e+14
109.462
74.7595
9.72229e+09
5.32698e+07
2.40516e+07
935.483
14431.9
463125
5513.55
149.021
200.996
10326.2
2.40872e+11
4.20533e+12
5.98213e+08
251.992
9.69227e+06
1.31575e+08
3.51407e+18
114.007
1.20279e+17
24509.5
371.358
2.1007
1.88979e+17
1.92223e+10
1.56796e+16
14846
988154
1.41854e+17
10000
5.91057e+13
2.00801e+07
3.57404e+13
2.64505e+07
1.78225e+06
7.05309e+08
2.20443e+12
3.54737e+06
3.84135e+06
1.29622e+07
131.152
5318.14
4.62732
1.03958e+06
3502.34
17.3467
37.9613
3243.8
62.508
1868.65
7.09824
307.435
199344
61.2981
781.192
74.8396
1551.29
2.46995
105.015
96.1472
188.09
2.3792
22.8254
107.475
1.64524
0.516094
453.279
1235.24
27.2896
258.967
4.22634
13.8524
1.50804
11.3515
8.56682
127.656
8.81687
0.398076
591.736
32.662
69.9132
122.856
9.3771
72.9263
1.82989
9.40431
0.516044
7.2853
33.9657
133.185
3.43084
2.56286
1.97259
1.30753
1.95464
123.291
0.525174
5.00884
1.37086
0.688224
15.9889
1.22006
3.97917
106.418
1.70269
9.76861
100.941
117.42
2.97952
1.8685
2.11418
103.957
4.15598
0.75794
1.66933
0.98458
1.32864
160.264
1.98068
100.235
1
SCALARS cell_area_modifier float
LOOKUP_TABLE default
100
0.669118
0.81982
0.342105
0.355469
0.385593
0.495913
0.318182
0.36255
1.625
0.43128
1.15924
0.315425
0.548193
0.612795
0.452736
0.294976
1.2381
0.416476
0.307432
0.302326
0.411765
0.407159
0.32971
0.345351
0.335793
0.290271
0.297386
0.299835
0.458438
100
0.694656
0.398249
0.556575
0.292605
100
0.373717
100
100
100
100
1.32847
100
1.12346
100
0.767932
100
91
100
100
4.33333
2.21951
100
100
100
100
100
100
100
100
100
0.592834
1.55556
1.78431
0.421296
0.947917
0.312715
0.402655
1.43307
0.352031
0.287975
0.447174
0.366197
1.02825
100
3.5
0.441748
0.381551
100
100
100
100
0.482759
0.524496
2.09195
100
0.736842
100
0.33892
0.973262
100
100
100
0.623288
100
100
100
0.47644
100
0.708171
0.879227
100
0.32675
100
1.28169
100
0.502762
0.369919
1.37879
1.4918
26
3.19298
6.74074
2.36364
100
1.19737
0.389722
0.320988
100
0.304858
100
0.436451
1.08982
0.540059
0.332724
100
0.310051
0.323843
100
100
0.565217
100
2.71642
0.377593
0.83871
0.509804
0.574132
100
0.489247
0.393939
100
4.91892
0.602649
100
5.6875
0.532164
0.348659
8.27273
0.470284
0.65704
0.858491
100
0.801762
0.583333
0.358974
0.752066
0.517045
10.7059
0.464286
3.87234
1
0.42623
15.1667
0.634146
2.52778
100
1.70093
0.784483
100
100
1.87629
0.923858
1.05814
100
2.93548
0.64539
0.681648
0.90099
0.722222
100
1.97826
100
1
SCALARS cell_Gaussian_modifier float
LOOKUP_TABLE default
6.95455e+14
3.02226e+13
6.91316e+12
2.57537e+13
3.15303e+12
1.36702e+11
8.10355e+07
8.8307e+09
3.59164e+12
4.7744e+11
4.87765e+09
1.16017e+09
1.15151e+06
2.31336e+07
1.85119e+10
4.11302e+11
2.50692e+09
4.24861e+06
387322
3838.37
999536
1.32755e+07
3.577e+08
2.70835e+07
410566
17568.9
1780.09
5288.54
197060
493223
1.63194e+07
38488.9
2826.66
297.79
45.6287
14965.3
106563
2.63704e+16
3.04172e+15
1.06192e+14
3.95984e+10
2.61726e+09
4.70274e+08
2.28033e+06
217602
633.887
13.4994
4091.61
39995.5
5.01665e+07
3.18437e+08
2.30927e+09
6.33974e+13
2.78871e+15
6.41569e+16
100
1.71359e+13
4.82199e+07
1.00007
5.28014e+06
3.95074e+12
184.642
48.0597
5.44875e+09
1.26442e+08
2.53731e+07
2991.49
35841.8
323170
15662.1
517.478
449.479
28198.5
2.34255e+11
4.20533e+10
1.70918e+08
570.443
2.54023e+07
1.31575e+06
3.51407e+16
1.14007
1.20279e+15
50769.8
708.028
1.00418
1.88979e+15
2.60874e+10
1.56796e+14
43803.8
1.0153e+06
1.41854e+15
100
5.91057e+11
3.22165e+07
3.57404e+11
264505
17822.5
1.48037e+09
2.20443e+10
5.0092e+06
4.36901e+06
129622
401.384
53.1814
3.61033
10395.8
6966.19
46.8933
27.5323
2174.42
2.40415
585.238
1.05304
130.069
1993.44
51.194
2004.49
233.154
15.5129
8.10198
1.05015
220.293
172.588
4.40544
68.6016
1.07475
5.30635
1.59365
4.53279
12.3524
48.2815
2.58967
1.55585
36.6859
1.79804
22.2665
14.9213
1.27656
18.0213
1.0105
5.91736
6.64007
116.01
1.22856
1.64872
137.037
5.24838
1.13678
1.0973
11.0881
39.5644
1.33185
4.27912
4.39348
5.49507
1.73859
3.78039
11.5162
1.13114
1.29349
1.37086
1.61468
1.05421
1.92394
1.57418
1.06418
1.00103
12.4523
1.00941
1.1742
1.58798
2.0225
1.99802
1.03957
1.41577
1.17439
2.44896
1.09278
1.83966
1.60264
1.00122
1.00235
1
