# vtk DataFile Version 3.0
2D-vertex
ASCII
DATASET UNSTRUCTURED_GRID

POINTS 582 float
0.133596 -2.86776 0
2.58911 -2.75633 0
3.01536 -1.82425 0
2.03323 -0.716077 0
-0.234234 -0.482054 0
-1.0069 -1.94262 0
3.54667 -1.81176 0
4.15434 -0.982818 0
3.28889 0.565916 0
2.22155 0.293062 0
1.09468 1.58739 0
-0.586609 2.1341 0
-1.39745 0.890178 0
-1.56404 0.855062 0
-2.13377 -0.785073 0
-1.65375 -1.6884 0
4.72362 -1.16562 0
5.57505 -0.321857 0
3.81051 1.28349 0
3.52467 1.22589 0
2.69394 2.21721 0
1.60901 2.17482 0
1.11045 5.75124 0
0.18382 5.75447 0
-0.668413 3.93991 0
-1.93655 3.10301 0
-1.91372 1.21935 0
-3.22191 0.966686 0
-3.76049 -0.0422533 0
-3.47968 -0.762293 0
6.64654 -0.357527 0
7.30129 0.339597 0
7.18156 1.65921 0
5.0171 2.91187 0
5.5153 3.47229 0
3.21843 4.87414 0
2.52974 6.14234 0
1.59443 6.33979 0
0.700119 9.38096 0
-0.956789 9.46 0
-0.668701 6.59278 0
-2.26377 5.72135 0
-3.32186 4.25166 0
-4.30756 4.31099 0
-5.06282 2.94781 0
-6.48642 2.67134 0
-6.79455 1.61865 0
-5.30642 0.231032 0
7.63698 2.26793 0
7.34288 3.31741 0
6.61871 3.76326 0
5.99646 5.83096 0
3.67905 7.09658 0
3.63838 7.89507 0
2.20715 9.47018 0
2.76803 10.1686 0
-1.97039 10.7707 0
-1.91343 10.0074 0
-3.13063 8.78155 0
-2.8374 6.70791 0
-4.52271 7.08132 0
-5.90235 5.81925 0
-7.85263 4.39441 0
-7.71696 3.85489 0
8.29465 3.69117 0
8.29475 3.69367 0
6.93608 5.77402 0
7.41776 6.9629 0
6.24853 8.24983 0
6.49281 8.91871 0
5.83202 9.90618 0
5.65738 10.2812 0
-2.76101 13.029 0
-2.96071 12.8131 0
-6.30947 10.2631 0
-5.62223 9.40632 0
-6.334 8.13016 0
-6.23609 7.92808 0
-8.83774 4.9233 0
-8.68864 4.56183 0
9.84573 3.92483 0
10.2125 4.8681 0
9.4715 5.89501 0
10.6619 6.25874 0
10.4604 7.7967 0
10.7026 8.52614 0
10.1663 13.3007 0
11.1268 15.5772 0
-9.98256 15.6837 0
-9.94671 15.5349 0
-10.2914 9.562 0
-9.97927 9.00503 0
-10.313 8.39088 0
-9.56164 7.2702 0
-10.3515 6.02738 0
-9.89497 5.03938 0
3.44917 -4.64201 0
4.66736 -4.13138 0
5.51269 -3.75364 0
7.91385 -2.23669 0
9.25437 -0.844509 0
10.6684 1.4373 0
10.7633 1.59517 0
11.5087 2.63867 0
12.379 4.5336 0
12.6241 5.3067 0
12.9788 8.82822 0
13.5988 16.0085 0
-13.2909 16.2394 0
-12.8377 9.52441 0
-12.7489 8.22821 0
-12.3671 5.67866 0
-11.4979 3.73684 0
-10.6451 2.6355 0
-10.0458 1.91004 0
-9.15281 0.582805 0
-7.25092 -1.57125 0
-5.20431 -2.99784 0
-3.13085 -4.02652 0
-0.152899 -4.90939 0
12.8947 10.5279 0
9.03665 10.6514 0
-13.1087 12.1637 0
-10.3549 12.856 0
-0.435653 3.61277 0
0.896945 3.68033 0
-1.94004 5.6719 0
-1.25414 3.94599 0
4.51582 5.03344 0
4.94864 5.9447 0
0.397071 10.8775 0
0.174804 9.89506 0
-1.19467 7.89776 0
-2.44315 7.6251 0
5.99567 5.83332 0
5.26166 7.79103 0
4.29688 8.31781 0
4.32247 9.56263 0
2.34648 11.0657 0
2.34436 11.0644 0
-2.61506 11.0977 0
-4.14791 9.55357 0
-3.70351 8.8197 0
-4.63721 7.66027 0
1.1929 0.953644 0
-0.287135 -0.00643546 0
6.36423 1.93097 0
5.22167 0.419442 0
5.0151 2.91337 0
3.01141 3.77323 0
-9.19742 11.1358 0
-6.11798 10.9007 0
3.00891 3.77325 0
1.57113 4.4906 0
-9.55051 7.20918 0
-8.12946 6.58268 0
-1.03912 -1.95805 0
-1.5185 -4.63583 0
7.25693 33.4899 0
8.49527 35.1593 0
0.954031 -2.54632 0
1.1026 -1.09703 0
2.58431 8.31748 0
1.37452 7.29026 0
8.84497 10.1595 0
5.83283 9.90857 0
9.65259 21.4187 0
0.29385 12.6144 0
-2.92774 -1.02975 0
-3.69084 -3.77642 0
-4.50878 2.01379 0
-5.41857 0.854955 0
-5.8381 -2.6102 0
-4.72482 -0.17375 0
0.405306 7.80679 0
-0.567842 7.37487 0
9.43126 5.7418 0
7.79299 5.01142 0
5.37237 -0.847067 0
7.02629 -2.89768 0
1.39599 -5.01948 0
1.4868 -2.99335 0
-6.37056 0.99177 0
-7.99239 -0.86978 0
-5.5248 4.71864 0
-6.8523 3.51361 0
7.45537 1.78358 0
9.85637 0.0133793 0
-12.6168 7.05472 0
-9.57314 7.25117 0
13.0117 7.33523 0
10.9179 7.26714 0
-2.91917 3.31196 0
-3.84746 1.98925 0
-9.62905 1.33703 0
-6.84711 2.95066 0
-3.69179 6.53361 0
-4.47236 4.61662 0
-6.97152 6.75097 0
-6.5522 5.92467 0
8.43338 7.09892 0
8.67869 7.61052 0
-0.823581 12.4897 0
-0.688903 11.6176 0
12.8989 10.5371 0
10.4097 11.8542 0
10.3321 14.2841 0
2.15737 11.4355 0
8.14698 8.82144 0
9.47892 9.56615 0
-7.50778 8.25441 0
-7.85229 9.04482 0
-2.3174 14.7014 0
0.983282 13.8231 0
-10.2583 13.4013 0
-4.29075 12.7442 0
9.47792 9.56846 0
12.8992 9.93528 0
-10.9884 14.7037 0
-13.3902 15.1998 0
-12.8887 10.5613 0
-9.44072 10.7381 0
13.0549 18.8127 0
10.5684 17.289 0
8.71265 11.1012 0
6.60765 11.2756 0
-9.44063 10.7356 0
-7.53282 9.96326 0
2.61607 14.3496 0
4.41921 12.8374 0
-4.64484 11.3035 0
-3.82044 10.5292 0
5.20684 12.6138 0
4.27131 11.1164 0
13.2868 12.2828 0
10.6474 12.4531 0
-2.96015 14.3271 0
-4.82412 13.713 0
-9.00844 30.0191 0
0.141726 15.2619 0
-6.75835 11.5313 0
-4.72987 13.065 0
-12.9623 11.2995 0
-9.69065 11.8101 0
6.62714 16.5524 0
8.60782 15.017 0
-0.971867 14.0739 0
-0.607407 12.7104 0
-10.6435 19.1394 0
-13.3884 18.9087 0
5.23634 34.5251 0
2.55694 15.3059 0
-3.2033 16.7194 0
-10.4676 19.5614 0
-10.9712 13.9149 0
-13.3168 13.2765 0
-6.90562 15.2628 0
-6.40482 14.0512 0
-6.63233 12.1528 0
-7.52648 13.1875 0
13.5474 14.1556 0
11.0765 14.8329 0
-10.9475 21.079 0
-13.3239 22.0435 0
6.3806 12.3078 0
5.20849 12.6119 0
10.5049 16.21 0
8.66248 15.746 0
4.24476 13.8275 0
7.07879 16.155 0
-2.10619 15.8501 0
-0.381264 16.1604 0
13.4519 23.8797 0
11.0531 23.743 0
0.483917 15.1962 0
1.55887 15.9727 0
10.8858 25.9041 0
4.38749 15.9627 0
13.405 13.2139 0
10.4837 13.7075 0
-8.71633 14.9164 0
-8.80996 14.0229 0
-9.59016 12.1132 0
-7.54588 12.8317 0
-10.2634 18.5875 0
-6.5593 16.8193 0
3.58988 35.7407 0
3.71988 37.5404 0
1.97329 13.6913 0
2.72092 12.2275 0
-4.08144 15.9426 0
-4.10042 15.0243 0
-13.3203 17.8313 0
-10.572 17.9847 0
0.0855884 17.4727 0
-0.171371 17.3255 0
8.09888 13.3527 0
7.68669 14.1752 0
8.98101 11.6752 0
7.93616 13.0014 0
-11.1243 20.3205 0
-13.4593 20.0947 0
-2.63353 16.6558 0
-1.64902 17.9145 0
1.82207 16.9253 0
3.78414 16.9575 0
6.67703 14.2927 0
6.46121 14.7242 0
-7.76065 18.3937 0
-7.54035 18.6799 0
-9.52026 16.2262 0
-6.79473 16.1994 0
4.34391 15.8624 0
5.02496 14.7752 0
-10.1564 22.935 0
-3.90063 18.1351 0
13.4071 25.4005 0
11.4984 25.1893 0
-11.5124 30.7458 0
-9.97885 29.6474 0
9.1231 17.7001 0
8.09032 16.367 0
12.9377 20.3329 0
10.0316 20.5968 0
4.65077 18.2151 0
6.55346 19.157 0
1.64834 19.1552 0
3.98404 18.6125 0
-0.228435 25.0513 0
-2.81674 23.7235 0
-2.77436 22.0889 0
-4.48464 19.974 0
-6.55065 15.8012 0
-4.29015 14.9396 0
-9.62706 21.4249 0
-8.36492 19.9223 0
7.20589 24.2381 0
7.72967 21.1734 0
-13.2742 16.8143 0
-9.88923 16.9078 0
-9.87007 16.9448 0
-7.63338 17.6429 0
0.106074 19.3137 0
0.328112 19.0378 0
7.59659 32.7539 0
2.42813 22.3149 0
10.9402 32.938 0
9.7316 31.839 0
-13.3619 25.0938 0
-11.1657 24.5874 0
-5.63924 17.0599 0
-5.3607 17.9821 0
8.72224 18.3074 0
7.51653 18.088 0
1.73174 17.0604 0
2.28655 18.1386 0
10.7845 16.7896 0
13.4828 17.0416 0
12.9041 19.3356 0
9.11664 17.9931 0
-10.4094 25.2226 0
-4.44822 20.1118 0
-1.98589 18.7812 0
-3.54838 18.8182 0
3.86212 22.8684 0
4.60737 22.307 0
-5.99313 18.7439 0
-5.71154 19.6417 0
4.67526 17.8972 0
6.641 17.054 0
-1.4993 21.7398 0
0.128017 23.0862 0
1.88518 28.9386 0
6.72805 31.3651 0
-4.70443 34.8618 0
-5.36513 35.9867 0
-0.112841 35.3998 0
-1.6188 24.7241 0
-13.415 23.1323 0
-11.1446 23.6467 0
-1.62917 19.2781 0
-3.41546 20.5391 0
-7.2159 21.7432 0
-5.68727 21.5803 0
9.46287 29.5335 0
7.38072 30.3503 0
5.50012 20.9252 0
7.10126 21.6549 0
10.9412 23.8832 0
8.44704 23.4824 0
13.2148 22.0291 0
10.8862 22.9106 0
-10.1254 28.4777 0
-3.42025 21.6691 0
12.1058 30.8669 0
10.3496 30.4621 0
2.75771 20.3095 0
4.04509 19.6021 0
-12.9917 27.4115 0
-10.913 27.2133 0
-0.869868 26.8839 0
4.02937 24.022 0
0.581988 20.5423 0
2.2349 21.0355 0
-8.33328 20.0199 0
-6.95367 20.5771 0
9.25144 19.5067 0
7.63368 19.9904 0
-1.15146 20.9799 0
-1.92027 19.9867 0
12.8927 19.4508 0
9.25299 19.5048 0
-1.80752 24.1068 0
-0.800695 22.939 0
-5.45293 22.0942 0
-4.44163 22.3554 0
-3.74606 24.2708 0
-4.35922 23.884 0
-13.324 22.0536 0
-10.2114 22.6172 0
5.16825 24.4675 0
6.10685 23.7456 0
0.366505 30.057 0
1.45816 35.4116 0
-7.71518 22.9303 0
-7.04897 23.8365 0
0.483021 35.8483 0
0.311247 37.6264 0
-6.22847 29.3952 0
-4.76082 30.1616 0
9.88328 22.2632 0
8.47326 22.8919 0
13.2271 26.9159 0
11.1157 26.5761 0
6.02083 22.9389 0
7.1458 22.1525 0
2.75132 20.6865 0
4.53914 21.5967 0
3.31521 24.5976 0
3.71636 28.1747 0
5.44627 20.3006 0
6.59708 19.4726 0
1.93123 22.7469 0
2.22016 24.194 0
13.0444 21.1813 0
9.98449 21.8092 0
-2.43837 32.938 0
-1.8475 30.9126 0
-8.08604 31.3584 0
-9.13676 33.3354 0
0.197848 21.0169 0
0.719421 22.4214 0
-6.45524 23.7863 0
-5.82317 24.4941 0
-9.46865 21.874 0
-7.21623 21.7407 0
6.73031 26.7046 0
8.73332 25.7212 0
-12.335 29.3642 0
-10.5761 28.2986 0
-5.9625 25.2445 0
-5.06979 26.0309 0
2.78814 32.0754 0
5.66311 31.3707 0
-6.60064 32.0424 0
-5.83169 30.074 0
6.34461 27.4048 0
4.66515 27.4335 0
2.81963 27.8885 0
1.84438 26.323 0
-3.89281 25.6518 0
-3.72394 25.7932 0
4.95991 35.3126 0
5.87647 36.8485 0
0.501767 24.3336 0
1.63283 24.6935 0
-8.1204 25.2279 0
-7.99383 25.8582 0
2.60221 33.3523 0
1.63118 33.7567 0
-2.23324 25.5483 0
-1.68463 26.7369 0
8.82255 31.9247 0
8.13758 30.4579 0
-2.88704 35.4569 0
-3.38673 36.8853 0
-3.45089 34.7895 0
-2.94883 33.0833 0
9.25972 25.3408 0
9.31532 24.0975 0
-7.66384 28.5099 0
-7.34775 26.0841 0
9.53143 29.1274 0
8.6733 27.1833 0
-0.416649 33.3848 0
0.536828 31.0832 0
-9.20131 23.4287 0
-9.24456 24.7267 0
9.68082 34.2039 0
8.45439 32.6824 0
12.9892 28.2365 0
10.7844 27.9422 0
6.45225 33.5835 0
5.31202 32.1193 0
-0.797141 29.7637 0
-0.392558 28.1137 0
-5.87814 33.4916 0
-7.06518 34.829 0
3.51821 25.9122 0
2.58447 26.6487 0
5.02119 30.0021 0
5.30656 27.7715 0
5.36922 25.6308 0
4.53664 26.3177 0
-4.04141 29.3181 0
-3.02132 29.5359 0
7.32135 25.1568 0
6.45619 25.9539 0
4.08459 29.7848 0
3.87297 31.6016 0
-7.77696 31.2798 0
-7.05547 29.4308 0
6.12315 34.3799 0
7.28172 36.0174 0
-5.34735 27.956 0
-4.46634 28.0698 0
-5.15065 33.7129 0
-3.68435 32.5671 0
1.76917 31.2073 0
1.17225 31.4485 0
-10.598 31.9599 0
-8.94508 30.7026 0
-7.95522 34.1721 0
-6.96387 32.1448 0
0.0774764 33.7291 0
[...]
CELL_DATA 873
SCALARS current_Length float
LOOKUP_TABLE default
0.881156
1.02493
1.48075
1.4715
1.65235
1.46854
0.531449
1.02782
1.77414
1.10167
1.02656
1.22249
1.76794
1.48486
0.478552
0.170251
1.73627
1.02294
0.0357219
0.59791
0.562961
0.821219
0.291587
0.700826
1.29338
1.08576
0.780781
1.05407
0.92664
2.00472
0.401496
0.585757
1.8838
0.504956
1.33237
1.14369
0.77286
0.830814
1.07208
0.956391
1.32504
0.861322
2.02669
0.00249742
1.30713
1.5876
1.44314
0.955925
0.761993
0.97557
0.735014
0.788569
1.19564
1.56982
1.81094
1.00459
0.987484
1.55842
1.19873
1.45019
1.09686
0.633923
0.708588
0.51728
1.08991
0.850415
1.14112
2.15931
1.71426
1.49382
0.799523
1.13555
1.50967
0.895773
0.990872
0.765337
1.1022
1.72753
0.998335
1.14121
0.871978
1.86982
0.347229
0.658345
0.556315
0.562974
1.02252
0.00249994
1.41005
0.00248975
1.28275
1.73877
0.78252
0.712086
1.18817
1.66839
0.00251769
1.61829
0.294086
0.722866
1.33182
1.09838
0.574143
1.46123
0.224553
0.590164
1.38797
0.391015
0.852605
1.56811
1.01207
1.17205
1.02469
1.24469
1.0404
1.65702
0.768594
0.865978
1.37546
0.516005
0.810103
0.15302
1.17241
0.878715
0.638492
2.12736
0.698967
1.34925
2.2775
0.0222358
1.08836
1.06359
2.07256
1.32089
2.57616
0.925887
2.70564
1.10665
2.26657
2.284
1.63918
3.14315
0.184189
3.23842
1.28243
2.10234
2.19211
0.81103
2.18098
2.06525
2.29611
0.59268
2.5093
3.35473
1.13208
2.54658
1.29924
2.4413
1.18089
2.04561
2.0654
1.39291
2.74562
0.941001
3.03409
0.708511
2.57573
2.65129
1.75371
2.82347
0.613294
2.76562
1.39273
2.06163
1.5528
1.93266
2.08519
1.07958
2.1275
1.0207
0.0100654
0.554309
3.86004
0.876486
1.06606
2.83954
1.48635
1.66541
1.33431
0.327489
1.08457
1.85721
1.85369
1.05398
1.00882
1.31416
1.21234
1.00732
1.58025
1.34538
1.2779
0.942277
1.08831
2.09078
1.09922
1.54815
1.24508
0.415321
1.95623
0.00250266
1.74995
1.48166
1.33271
0.857941
1.62115
1.48865
0.641312
1.42714
1.76416
1.66642
1.65467
1.89477
0.750059
1.1202
2.1804
0.466194
0.665681
2.47093
0.00249895
1.34217
1.6068
1.42765
1.80421
1.55302
0.671181
1.72364
2.72035
0.887229
1.82204
2.07854
0.695469
1.00558
1.45689
1.21284
1.09826
1.58707
0.527954
0.411843
3.02258
0.512426
0.906353
1.93851
0.613328
1.70199
2.8507
1.08599
0.961769
1.4733
0.742933
0.973258
2.67874
1.60154
0.816291
1.06469
0.15841
1.14711
1.7937
0.722735
1.73887
2.63448
2.08758
1.12751
2.02816
0.756804
1.85919
2.46895
1.16356
0.929575
1.79287
0.300727
1.04803
2.98303
1.39854
0.0477013
3.05001
1.49335
0.699815
2.09495
1.02235
0.66177
1.61595
0.891995
0.456195
3.21606
0.995202
1.05737
2.06982
1.17011
2.0082
0.926602
1.58968
1.79142
0.567375
2.01109
1.53608
0.882474
1.78827
0.644336
2.81612
0.924764
2.20514
1.87358
1.32252
1.60593
1.52599
1.18034
1.25957
0.862229
1.31323
1.39143
0.348425
0.55379
1.48356
0.654787
0.00251348
1.10992
3.4409
1.33268
1.04439
2.45249
1.0381
0.00252035
3.45251
0.544241
1.50264
2.91617
0.633624
1.05687
2.11221
1.44955
0.972413
2.05821
0.920082
1.80446
1.71035
1.52722
1.02909
1.13101
0.818735
1.92551
1.76488
0.938528
0.974643
2.64486
0.743798
1.61648
1.33655
0.67017
1.62832
1.18387
0.898738
0.543857
0.634178
0.741909
0.835447
3.31122
2.31598
2.23161
0.731021
1.48467
0.308923
1.41131
0.45719
1.18813
2.7546
1.08074
0.958112
1.69698
0.573308
1.00371
1.49109
0.78896
1.92471
2.43088
1.84355
1.5314
1.31103
2.10985
1.41564
0.356314
1.85356
0.746045
2.56211
1.03917
2.00675
2.56462
1.7032
0.00251169
1.21093
0.544199
0.601626
1.89993
1.00535
0.844431
1.43716
1.168
1.03968
1.75261
1.52145
0.179385
2.40268
1.46116
1.2003
1.32606
0.710169
0.109402
1.72095
0.952487
0.596251
2.96271
1.3771
1.57608
0.898398
0.319336
1.1382
2.16688
0.677146
0.663115
2.51022
1.43536
2.26486
1.80437
0.998731
0.972084
1.64367
0.951018
0.207803
0.91851
1.0181
1.25462
2.75263
1.29398
1.322
0.296108
2.06803
1.24787
0.919978
1.43989
0.387138
1.68839
0.778797
1.95346
2.34589
0.962923
1.59068
1.59796
0.988278
1.1634
1.96234
1.01648
1.55837
0.482471
0.761548
1.5781
0.36118
0.712801
0.467059
2.72567
1.87161
1.22759
1.28286
0.32249
1.54854
0.768522
1.52606
0.94143
1.92031
1.60797
1.17876
1.88635
0.293025
1.03352
1.68635
0.855039
0.905142
2.91809
0.318856
1.35487
2.12304
1.32543
0.776159
1.20033
1.29033
1.07853
1.42836
1.63511
1.07521
1.11765
0.644861
1.33776
2.41913
1.36504
2.13342
1.90999
1.20435
1.15871
1.51949
0.575056
0.775017
3.38626
0.0416965
1.3535
2.34309
0.929904
1.58385
0.354149
0.810627
1.02384
1.63806
1.78565
0.913078
1.63355
1.96222
0.940917
2.25386
1.91707
1.46807
0.963348
1.3097
1.43885
1.22552
0.162558
1.76238
1.21254
0.643535
1.03957
2.70999
0.115747
0.504344
4.01836
0.987626
0.142542
1.26608
0.611667
1.48749
1.56292
1.5371
0.713555
0.933022
0.990026
1.27111
0.940959
1.29507
0.501741
2.13895
1.34982
0.889795
0.940313
1.20003
0.799478
0.941293
0.745792
2.17292
1.30464
0.87372
0.645491
1.68154
1.08259
1.21782
2.32788
1.73561
0.770362
0.766053
0.00250919
1.92132
1.5373
1.28394
1.20653
1.61584
0.626888
0.791691
1.75958
1.42
1.4531
1.63994
1.86572
0.848973
2.48989
0.485006
1.12997
1.53083
2.37658
1.50924
1.80227
1.60098
0.991495
1.46895
1.21832
1.09857
2.08812
1.22597
1.16568
1.64319
1.31755
0.623245
1.7249
0.10258
1.55499
1.48791
1.34042
1.18687
1.68851
0.835739
1.59399
1.25599
0.883301
0.00250158
3.64013
1.07956
1.38784
1.54192
0.564827
1.23053
1.04448
0.827767
1.0533
0.725021
0.0100452
1.05072
3.16322
1.22289
0.811243
1.18408
0.521902
0.647592
0.732952
1.28786
0.595861
1.12473
1.06844
1.69836
1.78643
1.68746
1.10863
1.07444
1.19372
0.59112
1.54384
1.34189
0.99511
2.13854
1.54828
0.499566
1.3726
0.377074
1.17239
2.00618
0.917257
1.06496
1.33011
1.56565
0.318684
1.4177
0.658388
1.16705
1.47575
0.864778
0.465158
3.12365
0.530739
0.858479
1.64775
0.989327
1.10623
2.23886
0.610521
1.25475
1.49828
1.96666
1.58599
0.948952
0.476217
1.19283
2.25636
1.1806
0.925937
1.26938
2.06019
1.13646
2.05651
0.763247
1.23654
1.1897
1.02849
1.51162
0.826868
0.377369
0.786317
2.11325
0.955261
1.204
1.10089
1.40566
1.54302
0.808563
1.38869
1.51068
0.22025
0.834621
1.63263
1.78858
1.3022
0.770985
1.18694
1.75611
1.61982
0.642852
1.33397
1.66401
1.05186
1.02805
0.827922
1.30905
0.842419
0.764479
1.61887
1.13285
1.81623
1.51329
1.25562
0.898596
1.77848
0.649489
1.06406
1.2445
0.188883
0.684422
1.32087
0.411864
2.0011
1.0918
1.2008
1.04024
1.56406
1.56748
1.23086
1.29863
1.52263
0.86077
1.95422
1.93385
0.984229
2.22436
0.898625
1.18381
1.85581
1.55664
1.31916
0.850566
1.23243
2.05682
1.78819
1.09623
1.26198
1.18925
1.65163
0.725003
1.67231
1.13396
1.12314
1.07938
1.31861
1.12375
1.04309
1.52059
0.799157
1.17638
0.961481
0.670879
0.462073
0.318937
1.10373
1.98472
0.861722
1.48625
2.0059
1.49213
1.02593
0.888323
0.760408
0.901418
1.86089
1.33862
0.768095
0.643802
1.51993
0.68646
2.07676
1.44778
1.18717
2.25669
0.602251
1.86276
1.02517
1.5414
1.3565
0.843877
1.10278
1.0212
1.33927
1.08448
1.27901
1.39224
0.618222
1.35961
1.32319
0.707906
1.2235
1.44068
0.991063
0.60406
1.47586
1.96283
0.89545
1.61939
1.77534
1.2575
1.26848
0.65715
0.32832
1.61089
0.556812
1.10501
1.49536
0.725271
0.862575
1.4788
1.89144
1.6145
1.26819
0.610596
1.24811
1.22693
1.03716
1.07803
1.21896
1.12875
0.641655
2.61288
0.797088
0.769915
1.50748
1.11571
1.71634
1.84971
0.841981
0.923069
2.34174
0.778679
1.30011
1.90011
1.49906
1.44725
1.4513
1.55618
1.31138
1.23591
3.29291
3.27443
3.28001
166
232
3.25556

SCALARS edge_force float
LOOKUP_TABLE default
0.5
0.5
0.5
0.5
0.5
0.5
0.5
0.5
0.5
0.5
0.5
0.5
0.5
0.5
0.5
0.5
0.5
0.5
0.5
0.5
0.5
0.5
0.5
0.5
0.5
0.5
0.5
0.5
0.5
0.5
0.5
0.5
0.5
0.5
0.5
0.5
0.5
0.5
0.5
0.5
0.5
0.5
0.5
0.5
0.5
0.5
0.5
0.5
0.5
0.5
0.5
0.5
0.5
0.5
0.5
0.5
0.5
0.5
0.5
0.5
0.5
0.5
0.5
0.5
0.5
0.5
0.5
0.5
0.5
0.5
0.5
0.5
0.5
0.5
0.5
0.5
0.5
0.5
0.5
0.5
0.5
0.5
0.5
0.5
0.5
0.5
0.5
0.5
0.5
0.5
0.5
0.5
0.5
0.5
0.5
0.5
0.5
0.5
0.5
0.5
0.5
0.5
0.5
0.5
0.5
0.5
0.5
0.5
0.5
0.5
0.5
0.5
0.5
0.5
0.5
0.5
0.5
0.5
0.5
0.5
0.5
0.5
0.5
0.5
0.5
0.5
0.5
0.5
0.5
0.5
0.5
0.5
0.5
2
0.5
2
0.5
2
0.5
0.5
2
0.5
2
0.5
2
0.5
0.5
2
0.5
2
0.5
2
0.5
0.5
2
0.5
2
0.5
2
0.5
0.5
2
0.5
2
0.5
2
0.5
0.5
2
0.5
2
0.5
2
0.5
2
2
2
2
2
2
2
0.5
0.5
2
0.5
0.5
0.5
0.5
0.5
0.5
0.5
0.5
0.5
0.5
0.5
0.5
0.5
0.5
0.5
0.5
0.5
0.5
0.5
0.5
0.5
0.5
0.5
0.5
0.5
0.5
0.5
0.5
0.5
0.5
0.5
0.5
0.5
0.5
0.5
0.5
0.5
0.5
0.5
0.5
0.5
0.5
0.5
0.5
0.5
0.5
0.5
0.5
0.5
0.5
0.5
2
0.5
0.5
2
0.5
0.5
0.5
0.5
0.5
0.5
0.5
0.5
0.5
0.5
0.5
0.5
0.5
0.5
2
0.5
0.5
0.5
0.5
2
0.5
0.5
0.5
0.5
0.5
0.5
0.5
0.5
0.5
2
0.5
2
0.5
0.5
0.5
2
0.5
0.5
0.5
0.5
0.5
2
0.5
2
0.5
0.5
2
0.5
0.5
0.5
0.5
0.5
2
0.5
0.5
0.5
0.5
0.5
0.5
0.5
0.5
0.5
0.5
0.5
0.5
0.5
0.5
2
0.5
0.5
0.5
0.5
0.5
0.5
0.5
0.5
0.5
0.5
0.5
0.5
0.5
0.5
0.5
0.5
0.5
0.5
2
0.5
0.5
2
0.5
2
0.5
0.5
2
0.5
0.5
0.5
0.5
0.5
0.5
0.5
0.5
0.5
0.5
0.5
0.5
0.5
0.5
0.5
0.5
0.5
2
0.5
0.5
0.5
0.5
0.5
0.5
0.5
0.5
0.5
0.5
0.5
2
0.5
0.5
0.5
0.5
0.5
0.5
0.5
0.5
0.5
2
0.5
0.5
0.5
0.5
0.5
0.5
0.5
0.5
2
0.5
0.5
0.5
0.5
0.5
0.5
0.5
2
0.5
0.5
0.5
2
0.5
0.5
0.5
0.5
0.5
0.5
0.5
0.5
0.5
0.5
0.5
0.5
0.5
2
0.5
0.5
0.5
0.5
0.5
0.5
0.5
0.5
2
0.5
0.5
0.5
0.5
0.5
0.5
0.5
0.5
0.5
0.5
0.5
0.5
2
0.5
0.5
0.5
0.5
0.5
0.5
0.5
2
0.5
0.5
0.5
0.5
0.5
0.5
0.5
0.5
0.5
0.5
0.5
0.5
2
0.5
0.5
0.5
0.5
0.5
0.5
0.5
0.5
0.5
0.5
0.5
0.5
0.5
0.5
0.5
0.5
0.5
0.5
0.5
0.5
0.5
0.5
2
0.5
0.5
2
0.5
0.5
0.5
0.5
0.5
2
0.5
0.5
0.5
0.5
0.5
0.5
0.5
0.5
0.5
0.5
0.5
0.5
0.5
0.5
0.5
0.5
0.5
0.5
0.5
0.5
0.5
0.5
0.5
2
0.5
0.5
0.5
0.5
0.5
0.5
0.5
0.5
0.5
0.5
0.5
2
0.5
0.5
2
0.5
0.5
0.5
0.5
0.5
0.5
0.5
0.5
0.5
0.5
0.5
0.5
2
0.5
2
0.5
0.5
0.5
0.5
0.5
0.5
0.5
0.5
0.5
0.5
0.5
0.5
0.5
0.5
0.5
0.5
0.5
0.5
0.5
0.5
0.5
0.5
0.5
0.5
2
0.5
0.5
0.5
0.5
2
0.5
0.5
0.5
0.5
0.5
0.5
0.5
0.5
0.5
0.5
0.5
0.5
0.5
0.5
0.5
0.5
0.5
2
0.5
0.5
0.5
0.5
0.5
2
0.5
0.5
0.5
0.5
0.5
2
0.5
0.5
0.5
0.5
0.5
0.5
0.5
0.5
0.5
0.5
0.5
0.5
0.5
0.5
0.5
0.5
0.5
2
0.5
0.5
0.5
0.5
0.5
0.5
0.5
0.5
0.5
0.5
0.5
2
0.5
0.5
0.5
0.5
0.5
0.5
0.5
0.5
0.5
0.5
0.5
0.5
2
0.5
0.5
0.5
0.5
0.5
0.5
0.5
2
0.5
0.5
0.5
0.5
0.5
0.5
0.5
0.5
0.5
0.5
0.5
0.5
0.5
0.5
0.5
0.5
0.5
2
0.5
0.5
0.5
0.5
0.5
0.5
2
0.5
0.5
0.5
0.5
0.5
0.5
0.5
0.5
0.5
0.5
0.5
0.5
0.5
2
0.5
0.5
0.5
0.5
0.5
0.5
0.5
0.5
0.5
0.5
0.5
0.5
0.5
0.5
0.5
0.5
0.5
0.5
0.5
0.5
0.5
2
0.5
0.5
0.5
0.5
0.5
0.5
0.5
0.5
0.5
0.5
0.5
0.5
0.5
0.5
0.5
0.5
0.5
2
0.5
0.5
0.5
0.5
0.5
0.5
0.5
0.5
0.5
0.5
0.5
0.5
0.5
0.5
0.5
0.5
0.5
0.5
0.5
2
0.5
0.5
2
0.5
0.5
0.5
0.5
0.5
0.5
0.5
0.5
0.5
2
0.5
0.5
0.5
0.5
0.5
0.5
0.5
0.5
0.5
0.5
0.5
0.5
0.5
0.5
0.5
0.5
0.5
0.5
0.5
0.5
0.5
0.5
0.5
2
0.5
0.5
0.5
0.5
0.5
0.5
0.5
0.5
0.5
0.5
2
0.5
0.5
2
0.5
0.5
0.5
0.5
0.5
0.5
0.5
0.5
0.5
0.5
0.5
0.5
0.5
0.5
0.5
0.5
0.5
0.5
0.5
0.5
0.5
0.5
0.5
2
0.5
0.5
0.5
0.5
0.5
0.5
0.5
0.5
0.5
0.5
0.5
0.5
0.5
0.5
0.5
0.5
0.5
0.5
0.5
0.5
0.5
0.5
0.5
2
0.5
0.5
0.5
0.5
0.5
0.5
2
0.5
2
0.5
0.5
0.5
0.5
0.5
0.5
0.5
0.5
0.5
0.5
0.5
0
0
0
0
0
0
