# vtk DataFile Version 3.0
2D-vertex
ASCII
DATASET UNSTRUCTURED_GRID

POINTS 1674 float
0.712761 -5.81346 0
3.16441 -5.55309 0
3.53252 -4.59834 0
2.48646 -3.5537 0
0.211305 -3.45362 0
-0.478189 -4.95339 0
4.06401 -4.55272 0
4.61916 -3.6851 0
3.6568 -2.1953 0
2.6137 -2.53262 0
1.41476 -1.30152 0
-0.283874 -0.857129 0
-1.02449 -2.14669 0
-1.18348 -2.18915 0
-1.66875 -3.86192 0
-1.14369 -4.73406 0
5.19347 -3.82871 0
5.98958 -2.927 0
4.12309 -1.43896 0
3.85185 -1.51246 0
2.95738 -0.575613 0
1.89125 -0.685176 0
1.16586 2.92474 0
0.31474 2.88258 0
-0.470228 0.986063 0
-1.66548 0.0507908 0
-1.54769 -1.84664 0
-2.83771 -2.16148 0
-3.32995 -3.19829 0
-3.01588 -3.90194 0
7.05832 -2.88935 0
7.6658 -2.14463 0
7.45404 -0.838613 0
5.21568 0.270288 0
5.67209 0.863008 0
3.29611 2.13739 0
2.50301 3.40744 0
1.6183 3.54505 0
0.643716 6.7331 0
-0.932682 6.73834 0
-0.569754 3.67235 0
-2.05405 2.70083 0
-3.07999 1.13434 0
-4.041 1.1528 0
-4.75416 -0.263946 0
-6.16121 -0.594019 0
-6.42903 -1.65648 0
-4.88579 -2.98928 0
7.86522 -0.192018 0
7.49742 0.832023 0
6.73907 1.22814 0
5.94491 3.27176 0
3.57131 4.39959 0
3.47779 5.27863 0
2.00075 6.87749 0
2.52327 7.59609 0
-1.90459 8.11231 0
-1.78937 7.17254 0
-3.02303 5.79822 0
-2.66627 3.64876 0
-4.30128 3.92949 0
-5.66902 2.59359 0
-7.56766 1.08242 0
-7.41736 0.546613 0
8.40284 1.272 0
8.40277 1.2745 0
6.85841 3.27948 0
7.25398 4.50114 0
5.94312 5.73141 0
6.13162 6.4288 0
5.2941 7.42812 0
4.99054 7.95716 0
-2.60321 10.4275 0
-2.88464 10.0402 0
-6.02919 7.05016 0
-5.35855 6.27614 0
-6.07296 4.88865 0
-5.98862 4.72566 0
-8.55733 1.58707 0
-8.40039 1.22828 0
9.91923 1.63454 0
10.2043 2.60769 0
9.37396 3.56529 0
10.5169 4.02985 0
10.1553 5.54996 0
10.317 6.2731 0
9.30041 10.8829 0
10.1861 13.0052 0
-9.4956 12.072 0
-9.49549 12.0695 0
-9.99942 6.18681 0
-9.70165 5.6624 0
-10.0414 5.02533 0
-9.28911 3.93222 0
-10.0848 2.66706 0
-9.611 1.68274 0
4.13416 -7.37776 0
5.32407 -6.7888 0
6.15148 -6.3524 0
8.45092 -4.67067 0
9.69112 -3.18445 0
10.9347 -0.794496 0
11.0253 -0.612244 0
11.6855 0.497676 0
12.3865 2.463 0
12.562 3.26648 0
12.5692 6.80524 0
12.7388 13.5818 0
-13.0699 12.5756 0
-12.5718 6.14196 0
-12.4834 4.85013 0
-12.0875 2.29262 0
-11.1893 0.358465 0
-10.309 -0.73378 0
-9.68459 -1.45348 0
-8.73658 -2.77337 0
-6.74499 -4.86478 0
-4.62382 -6.2092 0
-2.48692 -7.1405 0
0.544369 -7.86018 0
12.3523 8.30238 0
8.27115 8.29895 0
-12.8338 8.6506 0
-9.93598 9.4505 0
-0.211534 0.656457 0
1.08256 0.791767 0
-1.801 2.67548 0
-1.00464 0.963995 0
4.54736 2.37774 0
4.92006 3.31403 0
0.313798 8.35049 0
0.115572 7.20686 0
-1.10238 5.01374 0
-2.28013 4.69216 0
5.94388 3.27403 0
5.03899 5.22503 0
4.05015 5.69235 0
4.0156 7.073 0
1.96056 8.63715 0
1.95868 8.6355 0
-2.35696 8.30747 0
-3.92682 6.47689 0
-3.47846 5.80376 0
-4.4346 4.51239 0
1.5522 -1.93699 0
0.131136 -2.97881 0
6.62481 -0.624761 0
5.58501 -2.20586 0
5.21361 0.27169 0
3.1683 1.01376 0
-8.86147 7.83456 0
-5.84729 7.75091 0
3.1658 1.01373 0
1.71623 1.64419 0
-9.29684 3.86584 0
-7.88071 3.2707 0
-0.510527 -4.9711 0
-0.841289 -7.6626 0
14.3486 28.216 0
17.4706 26.9884 0
1.51619 -5.44356 0
1.57932 -3.98981 0
2.47517 5.6273 0
1.32885 4.57152 0
8.11718 7.82698 0
5.29418 7.43063 0
7.94034 18.7118 0
-0.218724 10.3341 0
-2.446 -4.14461 0
-3.07198 -6.91447 0
-4.16295 -1.17217 0
-5.0243 -2.37058 0
-5.2863 -5.84453 0
-4.28269 -3.37186 0
0.401955 5.01299 0
-0.498867 4.55794 0
9.34805 3.4143 0
7.79156 2.56207 0
5.82228 -3.46567 0
7.60611 -5.39548 0
2.10395 -7.87974 0
2.07333 -5.85729 0
-5.97739 -2.27227 0
-7.522 -4.18583 0
-5.2501 1.50278 0
-6.5516 0.235101 0
7.71684 -0.695423 0
10.233 -2.27664 0
-12.3496 3.68381 0
-9.31205 3.8936 0
12.7522 5.32467 0
10.6759 5.05435 0
-2.63418 0.208846 0
-3.5106 -1.16768 0
-9.24421 -2.02433 0
-6.52773 -0.330187 0
-3.4926 3.43861 0
-4.21124 1.44172 0
-6.72623 3.46954 0
-6.29248 2.67351 0
8.20964 4.70601 0
8.39794 5.20174 0
-0.977514 10.1519 0
-0.710443 8.98602 0
12.3563 8.3116 0
9.64883 9.48471 0
9.41766 11.767 0
1.61642 9.23754 0
7.73673 6.45058 0
8.91629 7.20622 0
-7.21714 4.97716 0
-7.56344 5.7289 0
-2.39189 12.4921 0
0.501127 11.6843 0
-9.86508 9.95124 0
-4.07881 9.85751 0
8.91487 7.20829 0
12.3933 7.83779 0
-10.6255 11.1143 0
-13.1503 11.5942 0
-12.6216 7.13891 0
-9.13091 7.38641 0
12.0207 16.302 0
9.51512 14.4648 0
7.92009 8.7397 0
5.78997 8.85057 0
-9.13097 7.38389 0
-7.25468 6.70016 0
1.88467 12.2459 0
3.65773 10.6125 0
-4.36041 8.23899 0
-3.606 7.61119 0
4.34467 10.3836 0
3.50017 8.78247 0
12.6245 10.015 0
9.8329 10.0333 0
-3.01302 12.0442 0
-4.48869 10.819 0
-13.2668 23.9177 0
-0.205134 13.3452 0
-6.4303 8.28762 0
-4.35609 10.0453 0
-12.6957 7.86852 0
-9.30743 8.42472 0
5.21595 14.5455 0
7.50844 12.5341 0
-1.38058 12.0909 0
-0.811065 10.3608 0
-10.0178 15.3518 0
-13.3247 14.3525 0
18.1796 32.2452 0
1.77094 13.3949 0
-2.98447 14.8497 0
-9.95464 15.7773 0
-10.5938 10.4349 0
-13.0479 9.69873 0
-6.45006 12.0923 0
-5.89791 11.0146 0
-6.30098 9.05742 0
-7.07561 9.97958 0
12.7782 11.7484 0
10.1678 12.3558 0
-10.8255 16.8093 0
-13.8929 16.6843 0
5.54281 9.96408 0
4.36396 10.3165 0
9.50006 13.6516 0
7.5392 13.1029 0
3.44241 11.8087 0
5.94013 13.8554 0
-2.21434 14.0835 0
-0.80824 14.3925 0
13.2772 18.2672 0
10.4017 19.5029 0
-0.151426 13.3347 0
0.726353 14.0346 0
11.1241 21.237 0
3.30114 13.982 0
12.6855 10.8646 0
9.57231 11.2559 0
-8.30125 11.5799 0
-8.33076 10.7013 0
-9.19832 8.77547 0
-7.08131 9.59312 0
-9.64207 15.0028 0
-5.98621 13.9745 0
20.5545 35.8822 0
22.7442 35.7923 0
1.30788 11.6022 0
2.16097 10.0618 0
-3.93264 13.7258 0
-3.79467 12.4135 0
-13.1663 13.6257 0
-9.85398 14.2914 0
-0.638542 16.0568 0
-0.640562 16.0553 0
7.15075 10.8804 0
6.68739 11.798 0
8.13929 9.25197 0
7.03301 10.6154 0
-10.7648 16.278 0
-13.5407 15.0987 0
-2.79488 14.853 0
-1.79405 16.386 0
1.01875 15.255 0
2.48575 15.2688 0
5.67129 11.9402 0
5.34072 12.6212 0
-7.16969 15.2682 0
-6.90472 15.8153 0
-8.89097 12.8585 0
-6.21152 13.0622 0
3.28169 13.9291 0
4.12438 12.6674 0
-10.1233 18.8219 0
-3.84927 16.0625 0
13.752 19.1519 0
11.2275 20.3713 0
-16.4002 22.7985 0
-13.7808 23.0401 0
7.54927 14.8905 0
6.78216 13.9535 0
12.0033 16.403 0
8.05657 17.7525 0
3.15619 16.6451 0
4.84309 17.2509 0
0.54585 18.1533 0
2.55077 17.1015 0
-1.03835 24.6251 0
-3.61268 22.9805 0
-3.06889 21.2861 0
-4.30872 18.0515 0
-6.04793 12.8349 0
-4.00033 12.2873 0
-9.35365 17.7586 0
-7.87601 16.7091 0
6.64256 22.1071 0
6.09442 19.0782 0
-13.0726 12.9342 0
-9.19733 13.3234 0
-9.13115 13.4879 0
-6.91833 14.4883 0
-0.633676 18.4407 0
-0.37637 18.0962 0
13.8881 27.6272 0
1.71523 21.8989 0
16.4225 23.9674 0
14.1842 24.6506 0
-14.8466 18.4453 0
-11.986 19.3125 0
-5.19667 14.3524 0
-5.0353 15.737 0
6.93834 15.793 0
5.83721 15.7853 0
0.717175 15.7412 0
1.32372 16.8411 0
9.70167 14.1164 0
12.5695 14.5692 0
12.0007 16.3699 0
7.53745 15.2306 0
-11.6478 20.3318 0
-4.29222 18.5698 0
-2.35749 17.4701 0
-3.44974 17.323 0
2.95792 22.1564 0
3.57414 21.4104 0
-5.55174 16.1752 0
-5.44448 17.4473 0
3.17629 15.9958 0
5.21794 15.1438 0
-1.98946 21.219 0
-0.514769 22.7468 0
1.89196 27.9797 0
11.6111 28.1397 0
-19.4109 37.4267 0
-20.98 36.5521 0
-20.6544 48.2588 0
-2.57228 24.1396 0
-13.9857 16.8525 0
-11.7809 18.9925 0
-1.87469 18.3635 0
-3.34222 19.2949 0
-7.05293 18.97 0
-5.60022 19.4016 0
12.1553 24.0545 0
10.9525 27.3037 0
4.05199 19.6007 0
5.54058 19.8605 0
10.3555 19.6748 0
7.41779 20.8102 0
12.2589 16.7916 0
10.2068 19.2726 0
-13.3596 22.3053 0
-3.69331 20.5717 0
15.4724 22.2484 0
13.7309 23.97 0
1.6209 19.1789 0
2.77295 18.4154 0
-15.5342 19.8432 0
-13.3951 21.2343 0
-1.86956 26.3341 0
3.49144 23.4798 0
-0.00502965 20.0077 0
1.29703 20.3194 0
-7.86421 16.8991 0
-6.50795 17.8993 0
7.17507 16.9958 0
5.65686 17.8706 0
-1.49337 20.4199 0
-2.27936 19.1126 0
11.9966 16.3817 0
7.34379 16.4996 0
-2.6644 23.6174 0
-1.43769 22.5254 0
-5.55175 20.1292 0
-4.59161 20.8185 0
-4.39003 23.1084 0
-5.04231 22.1584 0
-13.899 16.6924 0
-10.0256 18.3935 0
4.58493 23.4651 0
5.19751 22.1707 0
-0.302641 29.1261 0
20.4217 58.5459 0
-7.81755 19.8556 0
-7.55211 21.0317 0
9.49808 69.8477 0
9.7255 71.4339 0
-9.91164 25.8894 0
-8.01764 28.5407 0
8.53624 19.1275 0
7.27275 20.4752 0
14.213 19.9779 0
11.5298 21.505 0
4.85565 21.5527 0
5.72958 20.2938 0
1.68997 19.974 0
3.24988 20.4522 0
2.8938 24.1564 0
4.86535 27.8946 0
3.82651 18.7782 0
4.961 17.672 0
1.2829 22.3482 0
1.64204 23.7741 0
12.0474 16.5006 0
8.51046 18.9974 0
-6.92197 34.4822 0
-4.6604 30.7523 0
-13.7795 25.2976 0
-16.7354 24.6785 0
-0.423542 20.5204 0
0.125361 22.0703 0
-7.0101 21.2237 0
-6.69784 22.1593 0
-9.36523 18.1187 0
-7.05349 18.9675 0
7.92149 24.3404 0
8.81119 22.4564 0
-16.1797 21.6127 0
-13.6327 21.8915 0
-7.12388 22.8114 0
-7.1033 24.4569 0
4.85379 32.2349 0
8.41672 30.2343 0
-14.2333 27.1002 0
-9.73221 26.977 0
7.81145 24.9746 0
5.29182 26.6227 0
2.21268 27.6616 0
1.17886 25.712 0
-4.64164 24.929 0
-4.46256 25.0666 0
20.2918 34.8773 0
22.1795 33.8526 0
-0.225109 23.8942 0
1.02086 24.319 0
-9.13654 21.7445 0
-9.28398 22.1138 0
6.73335 36.7293 0
13.2186 44.5821 0
-3.20268 24.8801 0
-2.65755 26.1735 0
13.9589 25.2237 0
11.5739 25.8325 0
-20.0593 41.3445 0
-22.1171 40.5073 0
-18.3602 39.5944 0
-8.33533 33.5238 0
9.07265 21.7828 0
8.60298 20.929 0
-10.2531 24.0104 0
-8.71832 22.8814 0
11.8988 23.6778 0
9.51659 23.7591 0
-1.81565 36.4454 0
-0.513572 30.8186 0
-9.44173 19.7083 0
-9.95334 20.6117 0
16.8662 25.2242 0
14.4566 25.8255 0
14.6269 20.6426 0
12.2852 22.4594 0
16.8347 30.5975 0
13.0345 31.8174 0
-1.77192 29.0773 0
-1.4526 27.402 0
-16.0683 31.5921 0
-18.1822 30.3659 0
3.05288 25.3436 0
1.94386 26.0825 0
7.53087 29.3995 0
6.58118 26.2837 0
5.15218 24.026 0
4.27031 25.3248 0
-6.0071 27.9829 0
-5.4171 28.7786 0
7.14011 22.7717 0
6.93428 23.4262 0
5.77211 29.582 0
6.44548 32.2188 0
-13.7474 25.3988 0
-10.5975 25.61 0
18.4208 31.5387 0
20.6548 30.7113 0
-8.56462 25.2551 0
-5.814 27.3188 0
-14.5357 34.1537 0
-10.5108 31.7617 0
3.40358 31.694 0
2.98807 31.9972 0
-16.5688 23.8284 0
-13.4416 24.1983 0
-16.9875 25.8558 0
-14.5585 26.3068 0
0.000241535 39.986 0
[...]
CELL_DATA 2511
SCALARS current_Length float
LOOKUP_TABLE default
0.884488
1.02326
1.47835
1.46934
1.65067
1.46904
0.533442
1.03002
1.7736
1.09629
1.02898
1.21719
1.7558
1.48711
0.481529
0.164565
1.74174
1.018
0.0368712
0.591988
0.56405
0.826863
0.281027
0.710152
1.29528
1.07175
0.779051
1.06214
0.852162
2.05254
0.419002
0.534869
1.90108
0.49996
1.32789
1.14773
0.770567
0.827063
1.0694
0.961061
1.32307
0.856355
2.02862
0.00249758
1.27413
1.60295
1.49735
0.895353
0.767779
1.0665
0.709496
0.888422
1.18578
1.58421
1.87255
0.981506
0.961184
1.58612
1.20017
1.44525
1.09569
0.634006
0.714219
0.524818
1.08809
0.855567
1.12773
2.19251
1.73135
1.45795
0.883995
1.06152
1.36469
0.88849
1.18285
0.946806
0.96044
1.8468
1.11256
1.12845
0.852632
1.91189
0.335347
0.628556
0.556485
0.565792
1.00666
0.00250039
1.42527
0.00248867
1.28411
1.79775
0.706228
0.722417
1.30387
1.58135
0.0025152
1.70363
0.478734
0.492677
1.20806
1.02414
0.455464
1.56061
0.183521
0.597956
1.45668
0.391611
0.845408
1.55861
1.01404
1.17633
0.977379
1.23371
1.03677
1.60525
0.741006
1.0095
1.19886
0.461603
1.52774
0.00250704
1.47047
0.87462
0.603062
2.13924
0.721984
1.32695
2.32056
0.0449249
1.09242
1.05801
2.06636
1.32769
2.56667
0.93544
2.6994
1.11313
2.26107
2.27665
1.63984
3.12801
0.203568
3.22923
1.29138
2.10048
2.18703
0.822407
2.18293
2.06697
2.31413
0.466397
2.61708
3.60964
1.06977
2.57281
1.29486
2.44833
1.17397
2.03739
2.06026
1.4028
2.73727
0.952843
3.02336
0.720973
2.56364
2.64085
1.75718
2.81228
0.627202
2.75594
1.39967
2.05364
1.5597
1.9357
2.08663
0.743892
2.13254
1.03185
0.0100795
0.563478
4.08112
0.794176
0.999899
3.00618
1.51531
1.68385
1.30115
0.254313
1.12723
1.88769
1.88664
1.02573
1.00774
1.20539
1.14819
1.16068
1.73293
1.33239
1.22086
0.91455
1.03628
2.15064
1.0937
1.3269
1.38108
0.692025
1.66939
0.00250187
1.81131
1.44574
1.43
0.808784
1.56859
1.60681
0.650164
1.42404
1.76205
1.66936
1.65086
1.89237
0.748235
1.13087
2.17577
0.52291
0.723973
2.47303
0.00249826
1.39382
1.58074
1.43456
1.8145
1.5361
0.676074
1.72647
2.71175
0.942574
1.81763
3.35478
0.693962
1.00652
1.45512
1.33718
1.02666
1.55843
0.496453
0.607813
2.85068
0.637653
0.592941
1.88194
0.619394
1.70459
2.83971
1.0837
0.958147
1.47584
0.756219
0.968415
2.66858
1.73702
0.756297
1.00923
0.153199
1.17705
1.77452
0.726094
1.74116
2.62797
2.09135
1.13269
2.02268
0.763667
1.86286
2.45917
1.16848
0.920097
1.81684
0.299277
1.05724
2.97176
1.41567
0.0316546
3.0448
1.49185
0.718766
2.0939
1.02728
0.652367
1.63185
0.904845
0.451602
3.20147
0.946006
1.04066
2.12227
1.17148
2.03904
0.906533
1.63
1.79152
0.530292
1.64888
1.47964
1.19611
1.72438
0.578649
2.95074
0.953556
2.13781
2.05755
1.41309
1.6831
1.40085
1.14759
1.2745
0.827669
1.66786
1.53007
0.0547236
0.505738
1.64284
0.78496
0.00251362
1.04741
3.53496
1.47968
0.984739
2.57002
0.998185
0.0025218
3.49945
0.0707787
2.01141
3.10691
0.557198
1.14062
2.13301
1.47892
1.01915
1.99698
0.864332
1.59488
1.61794
1.56493
1.17879
0.98146
0.724085
1.54645
1.76053
0.851789
1.00265
2.79171
0.76575
1.42272
0.864501
0.512821
1.71904
1.6712
0.792443
0.33492
0.780577
0.733369
0.739712
3.43359
1.99601
2.0452
0.569628
1.08799
0.267068
1.8214
0.430211
0.77685
3.45463
0.8551
1.15459
1.39197
0.189617
0.952328
1.31999
0.680068
1.89822
2.56215
1.9208
1.44788
1.21092
2.18142
1.56789
0.386506
1.83383
0.649623
2.68018
1.01704
0.866259
3.06992
1.62632
0.0697974
1.2304
0.395213
1.00037
2.03618
1.21541
1.13867
1.21722
1.60132
1.20855
1.43965
1.00407
0.177979
3.12984
1.77478
1.22489
1.12263
0.486253
0.0564051
2.12281
0.888645
0.534035
3.13764
1.29072
1.70786
0.879019
0.367322
0.946513
2.26943
0.742289
0.939747
2.48659
1.03866
2.02019
2.19152
0.81092
0.987864
1.76088
0.875312
0.24131
1.31948
0.697783
1.08076
3.37853
1.63396
1.08151
0.00250346
2.14966
1.10269
1.02796
1.52737
0.28996
1.7558
0.534799
1.62423
3.01607
0.963902
1.19997
1.83083
1.25495
1.5234
1.46706
1.026
1.37203
0.757029
0.819368
1.48955
0.607887
0.992028
0.280041
2.68718
1.6024
1.09657
1.51718
0.439392
1.40005
1.3223
0.945924
0.871851
2.80354
1.20611
0.847008
2.63056
0.340328
0.84773
1.21097
0.107129
0.9663
4.17105
0.649556
0.89162
1.79238
0.923991
0.758209
1.52549
1.22506
0.787802
1.60893
1.77949
1.11807
1.19516
0.844437
1.54733
2.11956
1.75147
2.27792
1.71967
1.44646
0.723661
1.5538
0.358592
0.556818
3.89481
0.177294
1.06434
2.42846
1.22176
2.05616
0.430014
0.747499
1.09344
2.33398
1.33281
0.615838
2.34023
1.81054
0.380042
2.98924
1.41081
1.22989
1.39399
0.814681
1.77092
1.10115
0.572095
1.25438
1.25607
0.506714
1.00178
2.90337
0.012533
0.82171
4.60635
1.07386
0.518565
1.71747
1.0155
1.12627
1.10212
1.26909
1.01156
0.967601
0.67731
1.28645
1.27662
1.00269
0.598285
2.2123
1.07454
0.931342
0.94909
1.47009
0.643647
0.186111
1.01653
1.21709
1.7964
0.86899
0.530244
1.86001
0.182046
1.6664
3.07264
1.24341
0.948865
0.851405
0.00250629
1.55011
1.51549
1.57781
1.06428
1.80592
0.852895
0.958532
1.51109
1.11601
1.51097
2.15507
1.79281
0.301706
3.21973
0.49579
1.32411
1.41358
1.96409
0.81776
2.44882
1.48579
1.33251
1.3821
0.925344
1.42973
2.55166
1.35113
1.42686
1.40193
1.68838
0.523156
1.33884
0.190315
1.15553
1.6852
1.16172
1.28435
1.75222
0.940597
1.07839
1.52538
0.0223096
0.524088
4.65426
1.14233
1.41813
1.64233
0.729175
0.931604
1.18199
0.740562
0.463729
1.15239
0.0101582
0.715278
4.23048
1.09359
0.706275
1.43203
1.46738
0.834997
1.43866
1.17004
0.575005
1.20572
1.69292
2.47682
1.60243
1.4889
0.208614
1.68225
1.67685
0.365
1.84739
0.783019
0.708248
3.08737
1.28939
0.472688
1.53256
0.798048
1.16981
1.63158
0.902772
0.681832
1.19781
1.11428
0.43733
1.58451
0.623522
1.30884
1.47046
0.359796
0.132623
4.32941
0.488715
1.51199
1.87087
1.47252
1.08359
3.02012
0.661851
1.19043
1.6442
1.82341
1.65553
0.986271
0.360226
1.19946
2.46266
0.797739
0.830221
1.10828
1.88356
0.698832
2.56224
0.778996
1.67883
0.892775
1.16366
1.21719
0.658049
0.857462
1.10223
2.34128
0.431634
1.34149
1.15178
0.451688
1.32463
0.85001
0.754131
1.2736
0.225837
0.944836
1.27631
2.14792
1.1834
0.826303
1.31641
1.73738
1.59597
0.397621
1.10408
0.963054
1.20038
0.97254
0.80419
1.40355
0.780932
0.728938
2.46145
0.933501
1.6833
2.22161
0.0962279
0.916935
0.697807
0.722631
1.19113
0.974417
0.924085
0.953478
1.02133
0.455731
1.69774
1.97735
1.46706
1.56492
1.25433
1.63085
1.39656
1.03829
1.15467
1.13631
2.48355
1.80478
0.397978
2.96386
0.746601
1.46083
1.09511
1.2769
1.14641
0.851845
0.993904
1.26853
2.4438
0.453344
1.6018
1.33264
1.24304
1.33318
0.954086
1.88034
1.65171
0.337172
0.691579
1.15266
0.990562
1.70057
1.34551
0.686066
1.7682
1.7349
0.293167
0.106088
0.681443
2.22293
0.889916
1.91349
2.38225
1.30565
1.22563
1.71833
0.963133
1.45074
1.75245
1.54779
1.44953
0.514363
1.04362
0.330593
3.14899
1.20401
1.21755
2.47054
1.04526
0.871614
1.03389
1.51879
1.62715
0.481038
1.38581
1.40467
0.93018
0.722683
1.21186
1.96546
0.605568
1.15655
1.11559
0.00250003
1.62714
1.38688
0.787869
0.792921
1.55731
0.995773
0.826224
2.65022
1.70904
0.583706
1.44391
0.771677
0.538919
2.19559
0.109531
1.46811
1.93102
1.05337
1.89252
0.0370001
2.39673
2.3451
0.852296
0.904262
1.08122
1.08653
0.762953
1.11267
1.51334
0.633174
0.501478
3.44906
1.0543
1.18631
0.887616
1.46682
2.26989
1.70285
0.0100436
0.999185
3.09598
0.639993
1.16121
2.19202
1.81198
1.65936
0.859955
1.81999
1.60038
0.97597
0.728129
1.04867
1.5117
0.483158
1.07898
2.47958
0.188118
1.59541
0.361793
1.22696
0.485158
2.72782
1.11116
1.10896
1.04493
0.928375
1.35309
1.07189
0.477708
0.711989
0.636406
1.45507
0.477968
1.0704
0.710873
0.640238
3.16579
1.0907
0.507138
1.27887
1.19659
0.969738
1.88709
1.03875
1.46944
0.972333
0.0100431
2.03548
2.84896
0.867774
1.10784
2.33539
0.75841
1.06806
1.95991
0.903074
1.29031
1.91161
0.514527
1.78277
2.79503
0.842732
1.46844
1.55994
0.937603
1.43871
0.289265
0.205645
0.964001
2.46111
0.284367
1.1733
0.74371
1.0387
1.15777
1.41431
1.781
1.585
1.23779
1.03904
1.38112
1.05186
0.184368
1.04971
2.01595
1.10284
1.96515
1.37518
0.15903
0.921595
1.50184
0.00883257
0.381865
0.947956
1.32845
0.765768
0.745455
1.20945
0.606802
1.81103
1.16351
0.895652
1.22163
0.656811
1.16095
2.63001
1.12811
0.659208
2.77503
1.44768
1.45071
1.37063
0.681553
1.40599
0.850621
1.9517
1.54191
1.01967
1.42793
0.879168
1.35488
1.44429
2.02772
1.15089
1.40235
0.493994
0.861464
1.3373
0.622737
0.925297
0.886456
1.45674
1.87236
0.775928
1.1393
2.62221
1.49168
0.760163
1.92363
1.78237
1.42101
0.597465
1.15795
0.941773
1.22924
0.696162
0.875844
1.13774
1.97443
1.81583
0.0953884
2.03947
2.13113
1.60405
1.12634
1.71264
1.19334
0.292632
1.29304
1.59516
1.61968
1.84863
1.03492
0.640528
0.350355
1.09375
1.43363
0.900323
2.12285
0.905922
0.00250137
3.65736
1.19901
1.74085
1.51061
1.46373
0.326416
1.35726
1.78204
1.2243
1.12868
0.738092
0.986126
1.02416
1.95824
0.725981
2.54304
0.922304
0.0101932
3.03125
0.739505
0.828757
0.571315
0.940485
1.10647
0.820879
0.180153
1.15833
2.11305
2.02015
1.32938
0.388423
0.643896
1.33185
1.75045
1.53246
1.28434
1.35648
1.34503
1.62885
1.59897
0.686262
1.39298
1.42205
0.947483
0.615723
1.26632
1.3749
1.48578
0.881606
0.739559
1.71766
0.869329
1.05132
1.00628
1.54722
1.51955
0.714584
1.2001
2.03273
1.29998
2.03106
0.618576
1.31969
1.97257
0.801272
0.853772
1.7322
1.98928
1.66574
1.19607
1.10307
0.583748
0.947203
1.30874
0.999807
0.870463
1.46499
1.57579
1.08935
1.22903
1.43105
0.879265
1.06854
1.9203
1.29077
1.23985
0.649136
1.04773
0.818303
1.80971
1.28497
0.731567
0.840397
1.52805
1.12867
1.05675
2.33621
0.679526
1.85282
1.8962
1.23419
1.01639
1.68767
0.641275
0.585475
1.48912
0.84249
1.02861
1.78626
0.345358
0.989686
3.48901
1.47882
1.64316
0.987856
1.05026
0.917014
2.52137
1.26352
1.05395
1.00324
1.4119
1.14548
0.829817
0.836766
1.42499
0.982741
1.56906
0.733901
2.07316
1.50859
0.611626
1.36422
0.63393
1.37539
0.701323
1.49945
1.38989
1.05287
0.921487
0.810981
0.639224
1.11833
0.51256
1.30537
0.728354
1.20677
1.48263
0.161644
0.617953
4.03807
1.52102
1.59864
1.70102
0.919777
0.49965
1.69814
1.91184
1.3272
1.21873
1.44881
1.0935
1.93035
0.824135
1.63231
1.5916
0.869589
1.3009
1.7958
1.20961
0.967448
0.515225
1.20961
0.642663
0.828693
1.31135
0.743384
2.04438
1.13563
0.321364
1.39792
1.69845
1.40395
1.16614
0.869179
1.35206
1.55868
1.32348
1.22173
1.07934
0.554185
1.26393
1.88141
0.869898
1.07624
2.52355
1.20864
0.704893
2.59775
0.973216
0.0799355
3.83688
1.10416
0.219251
1.74144
1.03298
0.553518
1.50616
0.617043
1.03578
2.85715
0.909532
0.57289
0.611728
1.34075
1.64453
1.23016
0.789745
0.815075
2.20518
1.14337
0.919842
1.6607
0.62462
0.549377
1.73546
1.30592
0.834735
1.40189
1.53643
1.10019
1.72369
1.11184
1.21915
1.15704
1.60285
1.08253
0.968971
0.773588
0.765288
1.94704
1.23897
0.841355
0.625732
1.23644
1.4755
1.46909
1.13692
0.749751
0.777066
0.482972
0.433524
2.38933
0.826963
0.774566
0.897914
0.684127
0.640656
1.13964
0.633478
1.35579
1.12245
0.523935
1.1243
1.40716
1.01895
0.882144
0.665616
0.748477
1.43053
1.58613
0.871121
1.71808
0.985251
1.43822
1.36413
1.27054
1.97044
1.58435
0.676759
0.989997
1.93308
1.65822
1.06429
1.36682
0.760595
0.400829
0.764438
1.94309
1.17065
1.31882
1.21949
0.648285
1.58626
2.25785
1.20732
2.10142
2.07497
1.42371
1.26046
2.29228
2.16615
1.41063
1.82463
1.08146
1.25285
1.04854
1.11423
0.870706
1.35625
1.40872
0.99436
1.43037
1.53972
0.671359
1.28717
1.16358
0.553666
1.50047
1.55368
1.51437
0.869494
1.15232
0.592353
1.57564
1.34286
1.37265
1.44993
1.09163
1.14244
0.871831
0.0154876
0.999712
1.46051
0.775036
0.832918
2.01375
1.39777
0.9093
1.74534
0.707115
1.58802
1.97287
1.74583
0.798009
1.14701
1.3553
1.27858
1.2063
0.831781
1.73354
1.44646
0.685727
1.2718
2.58514
1.0364
0.78457
2.69199
1.30066
0.975961
0.966507
1.53101
1.42262
0.645435
0.80643
1.08743
0.851083
1.41058
0.917102
0.969629
1.92472
0.893199
1.61552
2.26296
2.37342
0.758718
0.618674
1.30787
1.36525
1.21949
1.37871
1.40661
0.903939
1.04902
1.49882
1.45784
0.293525
1.67986
1.15146
1.76501
0.390542
0.792247
0.00924018
1.40282
0.497414
1.34139
1.68516
0.913692
0.436587
0.921582
1.49625
1.04782
1.96408
0.215044
0.388246
1.90932
0.807396
0.932725
1.26131
0.662348
1.47316
1.29801
1.09909
1.39
1.56824
1.30163
1.3799
0.933644
0.425392
1.39911
0.52702
0.9775
0.726346
1.27947
2.02005
0.919521
1.56467
0.801917
1.14582
2.44845
1.0863
0.963668
0.9852
1.06406
1.09524
1.92207
0.681815
1.41482
1.75253
1.17714
0.263228
1.73657
2.12139
1.28263
0.407439
0.974092
1.35116
1.17287
1.564
1.56097
1.04092
0.738708
1.55208
1.34141
1.86125
0.00867837
1.93803
0.995601
1.46604
1.52523
1.48437
0.986732
1.05857
1.07179
1.38154
0.891401
0.652206
0.864858
3.00904
1.43712
1.51019
1.46483
1.15377
1.41308
1.5435
2.12787
1.32298
0.680677
0.871661
1.54209
1.59149
0.676524
0.626913
1.93208
0.880763
0.737512
1.38216
1.3552
1.42459
1.74839
0.682516
0.842365
0.610394
0.239251
1.00297
1.79538
1.51248
0.562631
0.981253
1.2789
0.97685
1.37568
0.848788
1.03268
0.665775
1.47632
1.22504
1.61505
0.485633
0.669449
0.931352
1.88659
0.619945
0.910232
1.45183
0.788839
1.16055
1.99185
1.01278
2.21734
1.31817
0.210319
0.475695
1.31984
0.498077
2.04469
1.02017
1.71116
0.668657
0.98019
1.96314
1.04739
1.55611
0.790251
1.86765
0.469584
0.888636
1.20601
0.685893
1.05612
1.61224
0.448917
1.18347
1.69449
1.69684
0.766567
1.00497
1.80955
0.933054
0.70547
1.1155
1.33728
0.901335
1.04769
1.84705
0.939765
1.36121
1.9676
1.28738
1.45046
0.993873
2.05231
0.880161
0.889044
1.58914
0.591451
0.441745
2.47745
1.4825
0.919653
1.6371
1.28146
1.38381
0.980853
0.892452
0.99962
1.48708
1.54095
1.7499
1.2301
0.997146
1.09607
1.15254
0.208883
0.112203
1.40543
0.324502
0.932342
0.835103
0.218297
0.846132
1.29493
1.11479
0.779383
1.52414
2.14793
1.41689
1.89016
1.25715
0.887904
1.4603
1.67291
1.42789
1.77978
0.903805
1.07563
2.01745
1.05221
0.680146
0.803761
1.45953
0.5653
1.17187
0.96941
0.768482
1.91236
0.429273
0.156203
1.96938
1.21406
0.751252
0.857126
1.32659
1.4027
1.79822
0.432911
0.695498
1.76774
0.750506
0.9979
1.51618
0.748668
1.02828
0.682876
0.785199
0.677248
1.96004
0.525491
0.66749
1.16867
0.755809
1.26508
0.0707245
1.47743
0.872123
2.0611
1.92178
0.702572
1.02627
0.701495
1.30111
2.42304
1.16874
0.393366
1.83311
1.13767
1.00349
1.50286
2.24363
1.29265
1.99577
0.705381
0.0286614
1.79615
1.48705
1.43762
0.764009
1.77831
1.99001
0.915045
1.58704
0.728939
0.906334
1.34469
0.777956
1.28776
0.955798
1.27781
1.59534
1.52567
1.32073
0.822845
1.23467
0.963521
1.64757
0.509309
0.940019
1.06086
1.02101
1.64405
1.07656
0.235607
1.20021
1.29303
0.952657
1.52012
1.43229
0.132921
1.37334
1.77604
1.24915
1.02086
0.92606
1.46425
1.76381
0.955535
1.51069
1.67237
1.46758
1.46055
0.150432
1.92038
2.15513
1.31514
1.91597
1.44075
1.51416
1.28306
0.298776
1.05487
1.26844
1.6901
1.14253
0.688581
1.13406
0.605804
1.37252
0.653815
1.34394
1.7123
0.992475
1.34058
1.32435
1.49687
1.73345
1.08088
0.723601
1.01904
1.38737
1.66752
0.906102
1.95892
0.789212
0.873542
2.00927
1.22396
1.50823
0.920366
0.00727119
1.18948
1.64781
0.408428
0.500895
1.65047
1.0218
1.44911
1.79707
1.44224
1.35009
1.57469
1.11274
1.25253
1.59239
1.05616
1.02965
1.33267
1.38842
0.945115
0.937601
1.6547
1.71537
1.43801
2.08031
1.30339
1.89337
1.14651
0.234565
1.92075
1.16397
1.7006
0.779058
1.74696
1.35006
1.52722
1.44374
0.84293
2.00269
1.41884
1.3131
0.690114
1.24088
0.779565
1.28206
1.50223
0.18644
0.718971
1.50094
1.34669
1.81893
1.55771
1.67725
1.16294
1.21631
1.75264
1.20257
1.69914
0.830809
1.13899
1.55395
0.896127
1.9459
1.32234
0.966853
1.19192
1.68568
2.04652
1.04274
1.10281
0.749151
1.53576
0.902511
1.35034
1.11545
0.993448
2.01665
1.6594
0.432607
1.53701
1.29213
0.847078
1.56861
1.57871
1.67059
1.42063
0.797796
0.600537
1.21932
1.48863
0.999878
1.46958
1.02264
1.05953
1.07081
1.57592
1.41388
0.733716
2.11132
1.2129
1.08716
0.516375
1.41969
1.00687
1.01948
0.911131
0.301097
0.645372
0.400669
0.70581
1.30126
1.14957
1.29467
1.46583
1.4023
1.25844
1.4668
0.875977
0.749605
1.07925
1.51617
1.62479
0.867765
0.689783
0.933752
1.56094
1.75332
1.70794
0.99857
1.13545
1.97609
0.836926
1.43963
1.42625
0.766165
1.14575
1.52457
1.88946
1.00415
1.57677
1.07002
0.546598
1.05912
1.79007
0.697554
1.29797
2.64946
1.80385
0.805289
0.94813
1.3765
0.667809
1.36902
1.29174
1.6431
0.850107
0.843689
0.686854
1.1893
1.11843
1.2442
1.13166
0.893213
1.31892
1.18944
1.73237
0.594935
1.85304
1.07199
1.72126
0.80263
1.19319
1.69672
0.396363
0.60658
1.68096
2.39568
1.10028
1.54512
1.65673
1.88727
1.07539
1.66734
0.905993
1.0701
1.23923
0.671174
0.8911
1.4269
1.04062
1.21176
1.70714
1.17535
1.27496
1.57352
1.00963
0.697178
1.59179
1.09025
1.01106
1.99215
0.891826
0.983928
1.60586
1.07114
1.26617
1.82308
1.21918
0.995154
1.39114
1.34056
1.93528
1.00317
1.22559
0.90243
2.11581
1.31203
1.43445
0.843369
0.767744
0.623932
1.86232
1.22548
1.46278
1.15393
1.88987
1.48547
0.956784
0.714276
1.16672
1.35276
0.638542
0.861062
1.80049
1.48736
0.785907
2.04069
0.344226
0.764957
1.50556
0.846569
1.19503
1.81452
0.916522
1.75988
1.04351
0.318785
0.556778
1.99659
2.22802
1.62522
1.12694
1.23985
0.986051
1.46744
0.957882
1.04499
1.22895
1.56605
1.18418
1.85889
0.803569
1.14747
0.563653
0.757612
0.935102
0.71643
0.984048
1.15534
1.79344
0.783904
0.719933
0.900961
1.10583
0.800131
0.472823
1.58422
0.729846
2.12985
1.38106
1.2701
0.979366
0.918284
0.667164
1.22962
0.641234
0.960943
1.78526
1.08363
0.886428
2.07767
1.83555
0.902979
1.09586
0.669275
0.32113
2.27221
1.03029
1.34845
1.40913
1.48876
0.928222
2.11051
1.25412
0.939839
1.31674
1.78084
1.39233
1.42501
0.756284
0.878066
0.754583
1.18332
1.34457
0.923666
0.246765
1.37505
1.66178
1.39292
1.1642
0.976538
0.97433
0.743374
1.679
0.766457
1.76027
1.14549
1.13258
1.35199
1.53521
1.36272
1.68931
0.610451
1.46412
1.07836
1.51105
1.32376
0.827445
2.09144
1.05948
1.27713
1.54198
0.622734
1.18123
1.18095
1.31772
0.577295
0.840404
1.0236
1.08917
1.35731
0.506652
0.885988
1.64766
1.27948
0.871736
2.19426
0.768062
1.19383
1.30588
1.1042
0.454622
1.49492
1.2924
1.40642
1.54394
0.52701
0.642043
0.00250159
0.863967
1.03708
1.14037
1.09266
0.837048
1.9824
0.322172
1.08719
1.16354
0.66256
0.865626
1.43697
1.23952
1.17555
2.10814
1.62354
1.10273
0.988248
0.730956
1.01266
0.793907
0.72979
0.911578
2.25179
0.521353
1.19013
0.922538
0.39306
1.74993
1.5686
1.39139
0.968859
1.2494
1.32066
0.968943
1.78389
0.720145
0.937975
1.62872
0.912542
1.7999
1.76271
0.381164
0.972579
1.9125
1.40466
1.29242
0.730649
1.8165
0.625956
1.47522
1.01226
0.631778
1.93066
1.07663
0.722039
1.98113
1.68585
1.51257
0.620274
1.01449
1.17672
0.858577
1.32426
1.68903
1.23458
0.420314
1.00391
1.29757
1.09768
0.929511
1.66931
1.22694
0.329009
1.94419
1.60667
0.445974
1.04546
0.814661
1.64978
1.45345
1.6411
0.672707
1.17217
1.78644
0.647415
0.944498
1.90508
1.33764
0.810788
0.505105
1.19455
1.43668
1.0226
0.906044
1.57682
0.979344
0.994798
1.76235
1.63587
1.21332
0.758615
0.806839
0.986002
0.322931
0.929509
1.72047
2.00565
0.582602
1.88625
1.14177
1.6715
1.23793
1.19437
1.25403
1.15523
1.82697
1.8384
1.4235
0.740137
1.12212
0.51517
2.23157
0.829903
0.851224
0.967531
1.02041
1.56549
0.936771
1.46471
0.893199
1.9606
1.35283
0.589885
2.24597
0.727754
0.269984
1.68519
1.72037
0.90489
2.02317
1.71796
1.22176
0.759034
0.460323
0.767122
1.46813
1.09347
0.769021
1.34818
1.13105
1.34771
1.03499
0.597375
1.27556
1.43572
0.80532
0.976982
1.42212
1.64384
1.06794
1.29115
1.41718
1.11646
1.88257
1.51271
1.11039
1.49327
0.511445
0.863408
1.09683
1.69825
1.53155
1.6783
1.30674
0.670832
1.64376
1.12167
0.70627
1.70721
1.97075
0.731242
0.514312
0.944177
0.830679
1.7483
1.44575
1.1714
1.51552
1.72371
1.34676
1.01348
1.18455
1.06106
1.46074
1.68271
1.35216
0.718906
1.23113
0.322885
1.75816
1.41932
1.78955
1.5648
0.838208
0.906922
1.75235
0.617189
1.43725
2.20479
1.48825
0.694145
1.89938
0.523696
1.10336
0.880642
1.46993
1.46821
1.3445
1.45186
0.791493
2.09705
1.77474
1.33494
1.22699
0.631537
1.5431
2.09532
0.924212
0.951014
1.88622
2.12684
1.40877
1.90114
1.50225
1.62527
1.14984
1.63809
1.25312
1.41898
1.23686
0.807826
1.6154
1.12712
1.30578
1.77219
1.11807
1.22131
1.88776
1.91748
1.70647
1.84026
0.900424
0.895326
1.98611
0.685961
0.230002
1.29681
0.972077
1.38736
1.63471