# vtk DataFile Version 2.0
2D-vertex
ASCII
DATASET UNSTRUCTURED_GRID
POINTS 152 float
-0.297585 -0.731191 0
1.47401 -0.722921 0
1.88663 -0.143994 0
1.42705 0.762319 0
-0.230762 0.803861 0
-0.732457 -0.122831 0
3.1868 -0.228755 0
3.75304 0.695661 0
3.19296 1.63732 0
1.9438 1.62313 0
1.64212 2.14261 0
-0.147556 2.39552 0
-0.707466 1.74948 0
-1.87403 1.75922 0
-2.46359 0.549817 0
-1.93931 -0.219116 0
4.70918 0.714027 0
5.3035 1.84047 0
4.65729 2.90755 0
3.82638 2.8745 0
3.10105 3.78695 0
2.22317 3.56695 0
1.20273 5.66992 0
0.0308565 5.58921 0
-0.543982 3.55725 0
-2.37867 2.93696 0
-2.48093 2.51048 0
-3.78894 2.29481 0
-4.17097 1.53376 0
-3.5465 0.50439 0
5.98448 1.87616 0
6.90999 3.27006 0
6.70267 3.84939 0
5.44631 4.05681 0
5.26558 4.57841 0
3.29422 4.45713 0
2.32979 5.81334 0
1.40626 5.92928 0
1.05247 7.38164 0
-0.246757 7.36343 0
-0.766941 6.08976 0
-3.1007 5.33436 0
-3.69667 4.46821 0
-4.51672 4.46485 0
-4.85199 3.83047 0
-5.8206 3.73432 0
-6.05801 3.11191 0
-4.99774 1.54376 0
7.56967 4.92544 0
7.10102 5.96223 0
6.25362 5.97671 0
5.26585 7.06669 0
3.21545 6.90054 0
2.98323 7.64564 0
1.81751 7.9774 0
1.68725 9.71889 0
-0.897428 9.83452 0
-1.33081 8.51522 0
-2.58385 8.04605 0
-3.38157 6.30491 0
-4.54858 6.69277 0
-5.25621 5.92891 0
-6.12862 5.97847 0
-6.68395 4.89601 0
7.59503 6.68947 0
7.14685 7.75281 0
6.15512 8.01343 0
5.71083 9.7615 0
4.6319 9.8911 0
3.9519 11.1428 0
2.78773 11.0215 0
1.8331 11.9282 0
-0.46177 11.8842 0
-1.21511 11.3392 0
-2.91596 11.6565 0
-3.51697 10.184 0
-4.60289 9.89845 0
-5.00096 8.12078 0
-6.06951 7.86389 0
-6.59018 6.73989 0
7.62305 8.38578 0
7.00384 10.1247 0
6.23327 10.334 0
5.86136 11.5422 0
4.41457 11.8091 0
4.24428 12.2945 0
1.94465 12.5104 0
1.35523 13.1129 0
-0.00814468 13.1512 0
-0.563751 12.6365 0
-3.03774 12.505 0
-3.20535 12.0553 0
-4.77836 11.7659 0
-5.15352 10.434 0
-5.88898 10.2124 0
-6.50847 8.47047 0
1.86085 -2.21834 0
3.81541 -1.56007 0
5.55802 -0.574347 0
7.07726 0.688756 0
8.43208 2.72578 0
9.0127 4.67019 0
9.23545 6.59405 0
9.13816 8.556 0
8.21845 10.9662 0
6.83666 12.5795 0
5.31227 13.757 0
1.77644 14.972 0
-0.325958 15.0347 0
-4.02852 13.945 0
-5.67092 12.7181 0
-7.09716 11.0538 0
-8.0349 8.65779 0
-8.18846 6.7053 0
-8.0304 4.70136 0
-7.45485 2.60152 0
-5.97466 0.449753 0
-4.31147 -0.795758 0
-2.5611 -1.66989 0
-0.657788 -2.24412 0
3.29175 14.6437 0
2.90463 12.8885 0
-1.91065 14.7797 0
-1.60198 13.091 0
-0.212357 3.26593 0
1.50198 4.14 0
-1.90527 5.07466 0
-1.45303 3.54744 0
4.33608 4.90964 0
4.24546 6.52609 0
0.244552 9.77845 0
0.523391 7.65652 0
-0.834375 6.4083 0
-2.56319 6.9855 0
5.30916 7.48354 0
4.02216 8.75383 0
3.70016 8.72763 0
2.53563 10.0849 0
0.634951 11.3478 0
0.723929 10.2007 0
-1.25825 10.2106 0
-2.97284 9.64813 0
-3.17273 8.46891 0
-4.60783 7.81593 0
1.67784 2.0811 0
-0.368871 1.07782 0
6.32732 3.91136 0
5.27256 1.89154 0
5.4442 4.06288 0
3.10908 3.81483 0
-1.97362 12.9393 0
-1.74779 11.4385 0
CELLS 77 507
6 0 1 2 3 4 5
6 9 3 2 6 7 8
5 4 3 9 144 145
7 14 15 5 4 145 12 13
7 7 16 17 147 18 19 8
7 10 144 9 8 19 20 21
5 125 22 23 24 124
8 25 26 13 12 11 124 24 127
6 28 29 14 13 26 27
6 147 17 30 31 32 146
6 18 33 148 149 20 19
8 20 149 35 36 37 22 125 21
8 22 37 38 131 39 132 40 23
5 24 23 40 126 127
6 26 25 42 43 44 27
6 28 27 44 45 46 47
8 32 48 49 50 34 148 33 146
5 129 52 36 35 128
6 36 52 53 54 38 37
6 38 54 55 139 130 131
6 40 132 133 59 41 126
6 42 41 59 60 61 43
6 44 43 61 62 63 45
7 49 64 65 66 134 51 50
7 51 134 135 136 53 52 129
5 53 136 137 55 54
6 55 137 70 71 138 139
6 57 56 140 141 142 58
6 59 133 58 142 143 60
7 61 60 143 77 78 79 62
6 65 80 81 82 67 66
6 67 82 83 84 69 68
7 69 84 85 121 86 71 70
7 71 86 87 88 89 72 138
6 73 72 89 123 150 151
6 76 75 74 91 92 93
6 77 76 93 94 95 78
5 96 97 6 2 1
5 97 98 16 7 6
5 98 99 30 17 16
5 100 101 48 32 31
5 101 102 64 49 48
5 102 103 80 65 64
5 104 105 83 82 81
5 105 106 85 84 83
4 85 106 120 121
5 108 122 123 89 88
5 109 110 92 91 90
5 110 111 94 93 92
5 112 113 79 78 95
5 113 114 63 62 79
5 114 115 46 45 63
5 116 117 29 28 47
5 117 118 15 14 29
5 118 119 0 5 15
4 0 119 96 1
4 30 99 100 31
4 80 103 104 81
4 87 107 108 88
4 94 111 112 95
4 46 115 116 47
5 120 107 87 86 121
5 122 109 90 150 123
5 124 11 10 21 125
5 126 41 42 25 127
5 128 34 50 51 129
5 130 56 57 39 131
5 132 39 57 58 133
5 134 66 67 68 135
6 136 135 68 69 70 137
7 138 72 73 140 56 130 139
6 140 73 151 74 75 141
6 142 141 75 76 77 143
5 144 10 11 12 145
4 146 33 18 147
5 148 34 128 35 149
5 150 90 91 74 151
CELL_TYPES 77
7
7
7
7
7
7
7
7
7
7
7
7
7
7
7
7
7
7
7
7
7
7
7
7
7
7
7
7
7
7
7
7
7
7
7
7
7
7
7
7
7
7
7
7
7
7
7
7
7
7
7
7
7
7
7
7
7
7
7
7
7
7
7
7
7
7
7
7
7
7
7
7
7
7
7
7
7
CELL_DATA 77
SCALARS cell_division_count float
LOOKUP_TABLE default
0
0
1
0
0
0
1
0
0
1
1
0
0
1
0
0
0
1
0
1
1
0
0
0
1
1
1
1
1
0
0
0
0
0
1
0
0
0
0
0
0
0
0
0
0
1
1
0
0
0
0
0
0
0
0
0
0
0
0
0
0
1
1
1
1
1
1
1
1
1
1
1
1
1
1
1
1
SCALARS cell_time float
LOOKUP_TABLE default
2.67694e+17
2.22229e+13
1
4.48239e+13
2.67348e+11
1.25633e+10
11
2.68223e+09
9.19769e+11
1
1
9.79399e+07
570345
11
7.2135e+09
3.78616e+11
1.22599e+06
11
85432.9
11
11
470081
2.40938e+06
23793.4
11
11
11
11
11
10958
140970
165.897
57.5644
12143.2
1
261.157
57723
1.00108e+18
2.94533e+15
4.04436e+13
7.27143e+07
105093
1355.76
67.338
90.5948
21
21
58.0058
93.6627
2709.01
326.177
1.58454e+07
5.73434e+13
7.32315e+15
1.59129e+18
1.93556e+06
1.12104e+13
21176.3
23216.7
2047.96
3.046e+12
21
21
11
11
11
11
11
11
11
11
11
11
1
1
1
1
SCALARS cell_area float
LOOKUP_TABLE default
3.26373
3.27413
3.26618
3.28463
3.27887
3.26919
3.21432
3.32108
3.28179
3.27102
3.3
3.28423
3.30522
3.20537
3.25643
3.26043
3.2735
3.23103
3.26308
3.2517
3.22681
3.25768
3.27681
3.29879
3.27871
3.22657
3.28419
3.23696
3.25078
3.30957
3.25358
3.26696
3.30949
3.32231
3.30439
3.26573
3.26532
3.27806
3.28737
3.27982
3.27905
3.2911
3.28226
3.27154
3.27756
3.24166
3.28137
3.27834
3.27563
3.29072
3.29761
3.28205
3.28152
3.29124
3.28132
3.22685
3.23006
3.2207
3.2453
3.22943
3.22653
3.28146
3.24103
3.22412
3.21116
3.23474
3.21535
3.20339
3.23113
3.26084
3.30665
3.23403
3.25758
0
0
0
0
SCALARS cell_perimeter float
LOOKUP_TABLE default
6.95863
6.75205
6.98441
6.76617
6.79452
6.84881
7.21099
6.75801
6.77628
6.88532
6.76335
7.00717
6.80826
7.0806
7.1899
7.07856
6.90474
6.91729
6.78999
7.1683
6.9715
6.79307
6.8689
6.79429
6.87959
6.96863
6.76954
6.9733
6.78128
6.76541
7.04057
6.83269
6.90266
6.86833
7.07599
6.95724
7.05447
7.0932
7.05758
7.08784
7.10834
7.06228
7.07822
7.08825
7.14665
7.28029
7.12256
7.18245
7.12103
7.08254
7.07625
7.13843
7.08388
7.05794
7.08016
7.39024
7.34981
7.42784
7.28352
7.432
7.45854
7.12862
7.2917
7.06402
6.99665
6.94361
7.07791
6.9245
6.98728
6.96676
6.73404
7.0182
6.97844
0
0
0
0
SCALARS cell_frequency_modifier float
LOOKUP_TABLE default
2.40255e+14
2.61104e+12
7.22265e+10
1.07321e+12
1.36477e+10
7.34748e+08
7.05872e+07
1.25174e+08
3.2942e+10
1.59359e+08
1.36395e+06
102470
557.935
2.42092e+07
1.88037e+08
1.42029e+09
150007
1.39325e+06
1264.98
2585.59
592293
85008.7
166086
189.852
95.8084
1652.19
0.834436
1081.3
23006.9
155.913
155.915
2.30056
0.331596
0.292699
0.339377
2.32254
16.2685
1.52726e+16
1.24094e+14
6.99733e+11
2.80344e+06
4561.79
65.6035
1.45343
0.728412
117.5
0.708917
0.661618
1.12978
47.3628
3926.86
2.91127e+06
2.16316e+12
2.34816e+14
1.3492e+16
10000
4.6386e+11
647.407
164.872
579.523
1.17034e+12
0.648111
126.564
9.04779e+09
1.26166e+08
1.08326e+06
2263.87
19522
1784.44
9.44515
0.646107
211.91
58.5395
1
1
1
1
SCALARS cell_area_modifier float
LOOKUP_TABLE default
1.80247
0.853801
1.31532
0.404432
0.605809
1.1145
100
0.297352
0.469453
1.03546
0.338747
0.415954
0.323725
100
6.95238
2.86275
0.906832
100
2.05634
146
100
3.56098
0.764398
0.346793
0.632035
100
0.428152
100
100
0.303534
13.2727
1.20661
0.309979
0.291417
0.331066
1.44554
1.6044
0.691943
0.393531
0.559387
0.581673
0.373402
0.441088
0.966887
0.726368
100
0.519573
0.660633
0.80663
0.383202
0.355231
0.454829
0.48505
0.36409
0.538745
100
100
100
100
100
100
0.501718
100
100
100
100
100
100
100
2.39344
0.316703
100
4.70968
1
1
1
1
SCALARS cell_Gaussian_modifier float
LOOKUP_TABLE default
1.33292e+14
3.05813e+12
5.49119e+10
2.65362e+12
2.25281e+10
6.5926e+08
705872
4.20962e+08
7.01709e+10
1.53902e+08
4.02644e+06
246349
1723.48
242092
2.70464e+07
4.96129e+08
165418
13932.5
615.162
17.7095
5922.93
23872.3
217277
547.451
151.587
16.5219
1.94892
10.813
230.069
513.658
11.747
1.90663
1.06974
1.0044
1.0251
1.60669
10.1399
2.20721e+16
3.15335e+14
1.25089e+12
4.81961e+06
12216.9
148.731
1.50321
1.00281
1.175
1.36442
1.00149
1.40061
123.597
11054.4
6.40081e+06
4.45966e+12
6.4494e+14
2.50434e+16
100
4.6386e+09
6.47407
1.64872
5.79523
1.17034e+10
1.29178
1.26564
9.04779e+07
1.26166e+06
10832.6
22.6387
195.22
17.8444
3.94626
2.04011
2.1191
12.4296
1
1
1
1
