# vtk DataFile Version 3.0
2D-vertex
ASCII
DATASET UNSTRUCTURED_GRID

POINTS 638 float
0.184666 -3.05755 0
2.63344 -2.93198 0
3.05452 -1.99511 0
2.06361 -0.891615 0
-0.197271 -0.672289 0
-0.961209 -2.14111 0
3.5815 -1.9793 0
4.1839 -1.14644 0
3.30475 0.402335 0
2.2461 0.123802 0
1.11266 1.41873 0
-0.564782 1.95024 0
-1.36728 0.699226 0
-1.52651 0.664653 0
-2.09024 -0.989135 0
-1.60479 -1.89088 0
4.75207 -1.32511 0
5.59283 -0.476743 0
3.81395 1.12638 0
3.53697 1.06843 0
2.69471 2.05829 0
1.62043 2.00793 0
1.09323 5.61673 0
0.197254 5.6167 0
-0.659703 3.78366 0
-1.90905 2.92284 0
-1.87519 1.02419 0
-3.17595 0.765807 0
-3.71383 -0.254615 0
-3.42974 -0.974032 0
6.66183 -0.504892 0
7.30786 0.192254 0
7.1812 1.51202 0
5.00515 2.76389 0
5.4954 3.32573 0
3.19392 4.73143 0
2.48752 6.01751 0
1.5743 6.20776 0
0.693565 9.30866 0
-0.940885 9.38646 0
-0.658809 6.45289 0
-2.22064 5.56245 0
-3.28719 4.06466 0
-4.25734 4.11827 0
-5.016 2.73247 0
-6.43419 2.44927 0
-6.74081 1.3874 0
-5.25466 0.0096537 0
7.62524 2.1171 0
7.3215 3.17288 0
6.58705 3.62152 0
5.94161 5.69663 0
3.6245 6.96502 0
3.58163 7.79146 0
2.15861 9.39688 0
2.71621 10.0918 0
-1.93656 10.716 0
-1.86979 9.90866 0
-3.098 8.64716 0
-2.80014 6.54367 0
-4.46336 6.89576 0
-5.84937 5.61151 0
-7.79278 4.15811 0
-7.65568 3.62461 0
8.26113 3.54812 0
8.26118 3.55062 0
6.86994 5.6402 0
7.3479 6.82315 0
6.15387 8.12749 0
6.39216 8.79279 0
5.69801 9.80207 0
5.4995 10.2221 0
-2.71467 12.9783 0
-2.92796 12.7341 0
-6.22292 10.0541 0
-5.54013 9.228 0
-6.25475 7.91175 0
-6.16441 7.72908 0
-8.77844 4.67263 0
-8.63113 4.321 0
9.81123 3.79165 0
10.1679 4.72947 0
9.40846 5.74737 0
10.6004 6.12185 0
10.3743 7.65321 0
10.6021 8.36595 0
10.0439 13.0879 0
11.0895 15.2519 0
-9.96586 15.2785 0
-9.94008 15.1866 0
-10.2088 9.27186 0
-9.90534 8.7374 0
-10.2404 8.11358 0
-9.49343 7.00992 0
-10.2974 5.76163 0
-9.84032 4.78364 0
3.50723 -4.81434 0
4.72039 -4.29579 0
5.56078 -3.91307 0
7.94647 -2.38099 0
9.27451 -0.980881 0
10.6685 1.31254 0
10.7607 1.46933 0
11.4921 2.51298 0
12.3439 4.41201 0
12.5805 5.18288 0
12.9009 8.69307 0
13.6363 15.6082 0
-13.4013 15.7358 0
-12.7977 9.21608 0
-12.7036 7.93862 0
-12.3186 5.40499 0
-11.4436 3.46919 0
-10.5879 2.37412 0
-9.9904 1.65713 0
-9.10182 0.343013 0
-7.19697 -1.80269 0
-5.14785 -3.2202 0
-3.07111 -4.2391 0
-0.0894079 -5.10493 0
12.8166 10.2896 0
8.8573 10.5162 0
-13.0953 11.7488 0
-10.2804 12.5393 0
-0.420161 3.44836 0
0.892977 3.52069 0
-1.92724 5.51988 0
-1.22067 3.78669 0
4.47406 4.89745 0
4.903 5.80836 0
0.396657 10.8407 0
0.169193 9.8205 0
-1.17433 7.77881 0
-2.39923 7.50113 0
5.94076 5.69897 0
5.1836 7.67127 0
4.21675 8.19923 0
4.24877 9.48437 0
2.27055 11.0318 0
2.26844 11.0305 0
-2.53841 11.0114 0
-4.07756 9.39287 0
-3.63235 8.6759 0
-4.58116 7.47551 0
1.2167 0.776135 0
-0.253822 -0.189223 0
6.36183 1.78173 0
5.23023 0.271605 0
5.00317 2.7654 0
2.99782 3.62407 0
-9.11255 10.8717 0
-6.03724 10.7114 0
2.99532 3.62414 0
1.56662 4.33619 0
-9.49692 6.9543 0
-8.07918 6.34008 0
-0.991399 -2.15582 0
-1.45552 -4.8398 0
9.53414 34.9258 0
10.438 36.1946 0
1.00058 -2.73181 0
1.14022 -1.27685 0
2.54758 8.20734 0
1.34561 7.19025 0
8.66203 10.0281 0
5.69859 9.80452 0
9.79296 20.9873 0
0.207507 12.6346 0
-2.88002 -1.23737 0
-3.63124 -3.99215 0
-4.45873 1.80491 0
-5.36906 0.633776 0
-5.78112 -2.83625 0
-4.67529 -0.390322 0
0.394081 7.69616 0
-0.557301 7.26929 0
9.37236 5.60541 0
7.74628 4.86556 0
5.39416 -1.00399 0
7.06739 -3.04617 0
1.45806 -5.20511 0
1.53599 -3.17539 0
-6.31805 0.766422 0
-7.93856 -1.10536 0
-5.46349 4.51307 0
-6.79504 3.28983 0
7.44934 1.63555 0
9.86913 -0.119018 0
-12.5712 6.78382 0
-9.51115 6.98064 0
12.9479 7.21077 0
10.8441 7.12135 0
-2.87807 3.1231 0
-3.80704 1.78448 0
-9.57805 1.09365 0
-6.78783 2.72112 0
-3.64422 6.36363 0
-4.42099 4.41846 0
-6.90834 6.51924 0
-6.49067 5.71042 0
8.35104 6.96001 0
8.58411 7.45188 0
-0.828902 12.4989 0
-0.672903 11.5645 0
12.8212 10.2985 0
10.2779 11.6563 0
10.2342 14.0237 0
2.05082 11.4606 0
8.03919 8.69535 0
9.33575 9.40564 0
-7.41962 8.0222 0
-7.76335 8.79191 0
-2.31883 14.7169 0
0.917784 13.8724 0
-10.2044 13.0603 0
-4.23197 12.6301 0
9.33463 9.40789 0
12.8185 9.76047 0
-10.9839 14.2893 0
-13.4622 14.7199 0
-12.857 10.2147 0
-9.35693 10.4623 0
13.2025 18.3904 0
10.5877 16.8891 0
8.54342 10.9631 0
6.42846 11.1718 0
-9.35689 10.4598 0
-7.44998 9.73198 0
2.51239 14.3864 0
4.28255 12.817 0
-4.56105 11.1454 0
-3.75113 10.4128 0
5.05065 12.5726 0
4.10363 11.0792 0
13.2267 12.0033 0
10.5122 12.2217 0
-2.9559 14.3245 0
-4.75208 13.5835 0
-11.2154 29.3153 0
0.105773 15.3453 0
-6.66537 11.3088 0
-4.64236 12.918 0
-12.9396 10.9331 0
-9.5992 11.515 0
6.47633 16.501 0
8.48366 14.8397 0
-1.02139 14.1356 0
-0.624133 12.716 0
-10.7959 18.6439 0
-13.6523 18.1438 0
5.71959 36.5513 0
2.46263 15.3725 0
-3.20722 16.7419 0
-10.6717 19.0434 0
-10.9433 13.5544 0
-13.3269 12.8166 0
-6.85106 15.0416 0
-6.3176 13.8692 0
-6.54607 11.9622 0
-7.43577 12.9527 0
13.5216 13.7726 0
11.0176 14.559 0
-11.331 20.4684 0
-13.8976 21.1178 0
6.22128 12.2274 0
5.05213 12.5706 0
10.4802 15.918 0
8.5579 15.5097 0
4.12254 13.8473 0
6.96213 16.0391 0
-2.12125 15.9213 0
-0.420882 16.247 0
14.2715 22.5125 0
11.7511 22.8839 0
0.406931 15.2872 0
1.46783 16.0507 0
12.0787 24.9215 0
4.26094 15.9737 0
13.3579 12.8791 0
10.3619 13.4725 0
-8.68106 14.6193 0
-8.74015 13.746 0
-9.50381 11.8226 0
-7.44605 12.5992 0
-10.3734 18.1322 0
-6.53376 16.6374 0
3.83948 37.6163 0
3.87113 39.326 0
1.87099 13.7398 0
2.61737 12.2493 0
-4.07054 15.9113 0
-4.05297 14.9496 0
-13.5115 17.1583 0
-10.6263 17.5279 0
0.0451778 17.6026 0
-0.217746 17.4473 0
7.94648 13.1957 0
7.55014 14.0489 0
8.8092 11.5063 0
7.78641 12.8729 0
-11.4146 19.7402 0
-13.8225 19.2378 0
-2.65709 16.7005 0
-1.6963 18.0022 0
1.75195 17.0361 0
3.65616 17.0247 0
6.52759 14.2017 0
6.30919 14.6705 0
-7.82497 18.1319 0
-7.62985 18.4281 0
-9.49161 15.882 0
-6.74655 15.9823 0
4.22355 15.8914 0
4.90259 14.7575 0
-10.678 22.3422 0
-3.96394 18.1163 0
14.5399 23.9094 0
12.4843 24.1447 0
-13.5804 29.7639 0
-11.9411 28.9421 0
9.00204 17.3896 0
7.97719 16.1964 0
13.2249 19.4693 0
10.0464 20.1681 0
4.54388 18.2777 0
6.46511 19.094 0
1.61914 19.2972 0
3.9122 18.6931 0
-0.626102 24.8187 0
-3.23844 23.7699 0
-3.09178 22.0845 0
-4.65331 19.9304 0
-6.50193 15.6175 0
-4.24595 14.8545 0
-9.99786 20.9673 0
-8.56683 19.6121 0
8.01479 23.9449 0
7.80119 20.9951 0
-13.4098 16.2226 0
-9.88085 16.5187 0
-9.86834 16.5466 0
-7.64575 17.3888 0
0.0703156 19.4321 0
0.27803 19.1798 0
10.0011 33.8866 0
2.49799 22.3655 0
14.1657 31.6331 0
12.6083 30.9003 0
-14.3553 23.9345 0
-11.9808 23.7717 0
-5.63936 16.9254 0
-5.40667 17.887 0
8.58681 18.0516 0
7.38178 17.925 0
1.6521 17.192 0
2.23576 18.2786 0
10.7639 16.4507 0
13.5613 16.6084 0
13.1135 18.7779 0
9.00852 17.673 0
-11.3394 24.5161 0
-4.63394 20.0294 0
-2.05654 18.8518 0
-3.64318 18.8233 0
4.15437 22.9746 0
4.79907 22.4305 0
-6.07988 18.6017 0
-5.86438 19.5105 0
4.55666 17.9167 0
6.50528 16.9957 0
-1.73879 21.7825 0
-0.0556774 22.9924 0
1.88631 28.0405 0
9.02165 32.7228 0
-4.37903 37.3064 0
-4.73812 38.8003 0
-0.0610207 37.349 0
-2.17926 24.5006 0
-14.1037 22.0375 0
-11.8311 22.9431 0
-1.72096 19.353 0
-3.6065 20.5321 0
-7.59289 21.4745 0
-6.00477 21.4309 0
12.0722 28.9533 0
9.60585 31.2665 0
5.55016 20.9775 0
7.23567 21.5477 0
11.6907 22.9983 0
8.9747 23.0712 0
13.6799 20.7865 0
11.4596 22.2042 0
-11.91 27.6209 0
-3.68424 21.6421 0
14.6749 29.4033 0
12.7873 29.4994 0
2.7798 20.4552 0
4.01802 19.716 0
-14.4124 26.1503 0
-12.3188 26.3503 0
-1.3885 26.6531 0
4.35026 24.0967 0
0.513106 20.6228 0
2.31707 21.1673 0
-8.55417 19.6681 0
-7.21616 20.3585 0
9.16819 19.1692 0
7.57496 19.83 0
-1.34705 21.0014 0
-2.03412 20.0419 0
13.1118 18.7879 0
9.17583 19.1498 0
-2.29401 24.1552 0
-1.15969 22.8155 0
-5.85036 21.8536 0
-4.76615 22.2393 0
-4.19558 24.1891 0
-4.84696 23.6274 0
-13.9001 21.1275 0
-10.6932 22.0298 0
5.81593 24.461 0
6.54155 23.5981 0
0.0502157 29.5702 0
1.92618 37.0711 0
-8.23309 22.6196 0
-7.69165 23.558 0
0.729275 37.8053 0
0.731749 39.4783 0
-8.37357 29.9839 0
-5.61411 30.4782 0
10.2129 21.701 0
8.90494 22.5661 0
14.7163 25.3138 0
12.4669 25.5214 0
6.35029 22.9234 0
7.336 21.9925 0
2.78478 20.8398 0
4.67419 21.6903 0
3.69672 24.5716 0
4.58958 28.2953 0
5.4449 20.3288 0
6.534 19.4196 0
2.05057 22.7417 0
2.23041 23.8826 0
13.4044 20.1019 0
10.2297 21.3573 0
-2.76146 34.9067 0
-2.35251 32.3127 0
-10.5592 31.6823 0
-11.8725 32.7157 0
0.129439 21.081 0
0.563832 22.3119 0
-7.04699 23.5598 0
-6.62212 24.1364 0
-9.89402 21.3982 0
-7.59286 21.472 0
8.71758 26.8325 0
9.88211 25.1781 0
-14.1489 28.1861 0
-12.1895 27.4498 0
-6.87496 25.0812 0
-6.50991 26.6629 0
2.9856 32.4218 0
7.02553 32.6193 0
-9.03139 32.8035 0
-7.58838 30.7376 0
8.09742 27.6928 0
5.54304 27.3365 0
2.43939 27.5853 0
1.6272 25.6798 0
-4.09745 25.9828 0
-3.97633 26.0254 0
5.40394 37.2571 0
6.15317 38.7362 0
0.228624 23.9661 0
1.5287 24.4182 0
-8.98764 24.8501 0
-8.97189 25.4555 0
2.68261 34.4692 0
1.75349 35.9509 0
-2.76239 25.4883 0
-1.96941 26.6362 0
12.1242 31.1631 0
10.6371 30.4307 0
-2.70087 37.4814 0
-2.91986 39.2037 0
-3.62526 36.8989 0
-2.92328 34.9076 0
10.2658 24.7353 0
10.0616 23.5522 0
-9.20429 27.9586 0
-8.40187 25.7804 0
12.0762 28.0835 0
10.0524 26.9453 0
-0.853806 35.5612 0
0.526813 31.5053 0
-9.80661 22.9426 0
-10.0204 24.1879 0
13.1984 33.3968 0
12.0073 32.5216 0
14.825 26.5848 0
12.6002 26.8912 0
7.40196 35.2547 0
6.57631 34.3738 0
-0.83224 29.7343 0
-0.821033 27.6449 0
-7.17982 35.2913 0
-8.4681 36.3811 0
3.65913 25.4258 0
2.34676 26.08 0
6.4448 30.9102 0
7.09611 27.942 0
6.33998 25.3819 0
5.25265 25.837 0
-4.33755 29.8634 0
-3.70211 30.3664 0
8.3553 24.9399 0
8.03597 25.369 0
5.13173 30.4825 0
4.58434 33.0556 0
-9.58985 31.9471 0
-8.48846 30.0102 0
6.84835 36.4482 0
7.75135 37.9228 0
-7.43432 28.4243 0
-4.35557 28.6453 0
-6.05036 35.8436 0
-5.07881 34.0107 0
2.23315 31.8137 0
1.35725 32.1651 0
-12.8364 31.2375 0
-11.1513 30.1906 0
-10.7979 34.052 0
-9.36995 32.7102 0
-0.075758 36.0079 0
[...]
CELL_DATA 957
SCALARS current_Length float
LOOKUP_TABLE default
0.878533
1.02714
1.48311
1.46778
1.6556
1.46727
0.527215
1.02788
1.7809
1.09467
1.03169
1.2187
1.75963
1.48628
0.486366
0.162936
1.74723
1.02412
0.0335861
0.595598
0.563438
0.831568
0.282984
0.70541
1.2997
1.07547
0.777811
1.05775
0.895975
2.02346
0.412079
0.560973
1.89895
0.500846
1.32617
1.1535
0.773476
0.827873
1.06937
0.95046
1.32583
0.86262
2.02494
0.00249753
1.29087
1.59445
1.4673
0.932829
0.762069
1.00876
0.732765
0.822688
1.19668
1.57462
1.83873
0.989495
0.97163
1.57987
1.19832
1.44619
1.10526
0.63452
0.704025
0.512671
1.09861
0.860632
1.13102
2.17317
1.72407
1.48004
0.827555
1.11455
1.4677
0.890976
1.04001
0.810083
1.06563
1.76064
1.038
1.13957
0.863067
1.88953
0.341907
0.648887
0.550838
0.568754
1.01179
0.00249973
1.41216
0.00248889
1.27586
1.76834
0.754758
0.706684
1.22495
1.64855
0.0025172
1.63803
0.324239
0.670445
1.30815
1.07175
0.535123
1.49774
0.203785
0.591599
1.42026
0.381239
0.854028
1.56868
1.00336
1.1833
1.01243
1.24938
1.02878
1.6499
0.748254
0.914875
1.32854
0.499092
1.39625
0.0955142
1.19799
0.888892
0.614612
2.14269
0.708095
1.33268
2.30767
0.03423
1.07952
1.06766
2.07528
1.31934
2.58132
0.923427
2.71137
1.10239
2.27378
2.28997
1.63962
3.1478
0.181885
3.25102
1.27443
2.11195
2.19898
0.806374
2.19147
2.0609
2.32193
0.529099
2.5715
3.46579
1.09261
2.58951
1.28092
2.46937
1.16237
2.0524
2.07326
1.38976
2.76033
0.933331
3.05318
0.698237
2.58169
2.65653
1.75296
2.82792
0.612145
2.76843
1.3916
2.06564
1.55071
1.92976
2.0813
0.995455
2.12433
1.01795
0.0100712
0.54611
3.96582
0.830378
1.05677
2.92385
1.50509
1.67858
1.31513
0.296467
1.10459
1.87168
1.87442
1.04461
1.00684
1.29143
1.19192
1.04527
1.6245
1.34227
1.25598
0.931036
1.07217
2.11265
1.10161
1.48365
1.28554
0.481813
1.88138
0.00250211
1.76619
1.47183
1.35239
0.843952
1.60343
1.53009
0.650962
1.42448
1.75907
1.67488
1.65423
1.88706
0.74582
1.12459
2.18145
0.476836
0.683036
2.4859
0.00249849
1.36524
1.5963
1.43639
1.80813
1.54507
0.66816
1.72366
2.72381
0.90276
1.8178
1.55787
0.695298
1.00053
1.46164
1.25151
1.07766
1.57455
0.52572
0.462604
2.97186
0.572342
0.835606
1.99179
0.609538
1.70177
2.85538
1.08209
0.958214
1.48332
0.740575
0.970994
2.68429
1.64008
0.800215
1.04276
0.146471
1.16963
1.78649
0.717919
1.73821
2.64011
2.08609
1.12412
2.03122
0.751223
1.85768
2.47581
1.16424
0.923459
1.80813
0.295222
1.04708
2.98896
1.40178
0.0299409
3.06634
1.48305
0.709615
2.10572
1.02661
0.652009
1.62938
0.888963
0.446051
3.23017
0.976803
1.04679
2.09453
1.18447
2.02611
0.9103
1.60892
1.80152
0.544302
1.94574
1.52209
0.947378
1.7523
0.612065
2.88299
0.948802
2.18543
1.93144
1.35763
1.63848
1.47837
1.1701
1.26864
0.842977
1.36761
1.42705
0.306708
0.526485
1.52071
0.674495
0.00251392
1.07057
3.50167
1.37646
1.01777
2.51541
1.00043
0.00252158
3.50883
0.397567
1.66277
3.01513
0.604771
1.07569
2.12524
1.46182
0.990919
2.04107
0.910764
1.75931
1.69799
1.53865
1.07092
1.09207
0.806049
1.83369
1.76742
0.885612
0.984671
2.72327
0.748235
1.59138
1.26268
0.663566
1.65344
1.21746
0.866811
0.50131
0.664228
0.723136
0.806622
3.39072
2.27726
2.19893
0.67407
1.4217
0.298379
1.47417
0.418314
1.10717
2.89987
1.29204
0.987432
1.65855
0.551691
1.01856
1.50989
0.736047
1.90811
2.49513
1.8781
1.5267
1.28805
2.13017
1.44581
0.353654
1.83919
0.696681
2.62455
0.816026
1.76471
2.64742
1.693
0.00251061
1.21848
0.472547
0.670344
1.96519
1.04264
0.89931
1.40928
1.22048
1.04421
1.73128
1.42241
0.129395
2.54766
1.50424
1.20397
1.30708
0.714546
0.0903917
1.8224
0.908314
0.565757
3.05415
1.38092
1.61685
0.875258
0.321999
1.10259
2.19943
0.655028
0.688805
2.54844
1.60516
2.35703
1.71002
0.962381
0.971043
1.66693
0.939645
0.215127
0.961907
0.94125
1.24001
2.90885
1.21175
1.38629
0.305328
2.10016
1.22347
0.940761
1.47637
0.360348
1.70691
0.733034
1.88154
2.45974
0.945701
1.57924
1.61788
1.02553
1.21255
1.90424
1.03391
1.51636
0.517156
0.764355
1.56895
0.35475
0.767533
0.439212
2.74689
1.83579
1.1987
1.32173
0.312809
1.55966
0.776323
1.41547
0.876285
2.06905
1.6771
1.32157
1.83377
0.283428
1.02718
1.57293
0.657647
0.857584
3.25437
0.361156
1.2774
2.08747
1.34624
0.756025
1.19068
2.06973
1.04492
1.5854
1.69171
1.05821
1.14382
0.673452
1.3681
2.38151
1.42346
2.18032
1.94225
1.51351
1.11895
1.67051
0.486792
0.746249
3.54131
0.0305338
1.34206
2.37683
0.922802
1.59434
0.326777
1.1393
1.20725
1.52112
2.01158
0.550873
1.72117
1.91361
0.842029
2.38008
1.86804
1.46084
0.989304
1.24619
1.48557
1.21167
0.185109
1.72691
1.23348
0.60348
1.00303
2.80189
0.0101123
0.56675
4.25109
0.982589
0.100864
1.35922
0.603213
1.49871
1.5869
1.76483
0.750638
0.843639
0.981828
1.2818
0.934037
1.26754
0.495606
2.15531
1.47863
0.920281
1.11811
0.897595
1.06054
0.226976
0.912582
1.86247
1.53651
1.09258
0.363946
1.34112
0.932506
1.30026
2.44645
1.79302
0.739397
0.756705
0.00251091
1.96043
1.58872
0.899864
1.56909
1.64511
0.657156
0.790659
1.77934
1.39432
1.29797
1.72069
1.82458
0.739543
2.63427
0.32763
1.11275
1.39048
2.28717
1.41225
1.88998
1.63953
1.02835
1.4421
1.18823
1.21904
2.1031
1.48174
1.13903
1.26544
1.27035
0.570995
1.88435
0.0573688
1.59573
1.50562
1.33006
1.18682
1.72484
0.873775
1.64702
1.18014
0.690673
0.0208238
3.95261
1.02002
1.18426
1.75545
0.450039
1.23578
1.15077
0.117846
0.942283
0.860076
0.0100486
1.01864
3.33136
1.51028
0.701268
1.12746
1.08878
0.966399
1.0606
1.31187
0.644654
1.08343
1.40413
1.59827
1.67303
1.8206
1.41691
1.532
1.34442
0.509928
1.56815
1.27569
0.888207
2.25894
1.62765
0.455986
1.35582
0.384581
1.12934
2.07203
0.80785
1.05494
0.855027
1.55292
0.332789
1.41874
0.584608
1.62011
1.15493
0.737925
0.34417
3.41388
0.161825
1.05294
1.81238
1.04269
1.40737
1.67114
0.597659
1.54763
1.30525
2.08403
1.84667
0.716168
0.443186
1.17552
2.30234
1.05953
1.05168
1.3325
2.05281
1.10712
2.09321
0.978046
1.84444
0.605502
0.585367
1.80508
0.661107
0.351194
1.08833
1.64784
1.15213
1.35223
0.612967
0.716318
1.44788
0.823357
0.925851
1.32747
0.128385
0.773165
1.79325
1.65801
1.01438
0.882746
1.37642
1.83003
1.67942
0.605666
0.8595
1.13343
0.197597
1.14697
0.581158
1.39521
1.36355
1.08414
1.65766
1.07556
1.8484
1.7362
0.856846
1.54376
1.03889
0.585919
1.1886
1.20055
0.446317
0.656122
1.41284
0.869722
1.33954
1.79803
1.07786
1.24821
1.9683
1.60634
1.22683
1.26349
1.99655
0.975709
1.47811
1.9295
0.957625
2.24581
1.13347
1.36926
1.20736
1.11108
1.14265
1.00671
1.79015
2.51686
1.68742
0.532265
1.50814
1.4664
1.16866
1.66692
1.05573
1.69604
1.52729
0.00250291
1.21818
0.809484
0.810473
1.54528
1.61446
0.53483
1.38098
1.11607
0.146516
1.00484
0.811535
2.2282
1.31565
1.52699
1.72914
1.37994
1.01493
1.24261
1.25729
0.564827
1.08248
0.967425
1.23135
0.943724
1.65073
0.877661
1.98379
1.71485
0.794109
1.95944
0.897193
1.72673
0.794992
1.85474
1.39896
0.427674
1.69155
1.25108
1.16461
0.761572
1.42601
1.18028
0.98977
1.18128
0.718943
0.605634
1.44689
1.30588
0.718386
0.858521
1.4525
1.81683
1.21456
1.56623
1.53953
0.699512
1.46207
0.745655
0.659711
1.68745
0.433086
1.21595
1.54747
0.458489
1.25423
1.0641
2.15234
1.84948
1.02289
1.22616
0.553288
0.812697
1.03238
1.43619
1.00015
1.02823
0.634594
2.74488
1.53874
1.52858
0.277062
0.860384
1.54545
2.13216
0.894189
0.474349
2.37364
1.21072
1.32973
1.78051
2.03366
1.71219
0.958342
1.99498
1.75734
0.663472
1.27792
0.903346
1.31412
0.476872
1.51633
1.87494
0.995634
1.7348
1.35251
1.88741
1.50463
1.54157
1.15306
0.69479
1.28935
1.0504
1.10356
1.03348
0.49505
0.474653
1.87257
1.32106
0.930995
1.25968
1.94727
0.794675
1.63998
1.48386
1.07012
1.11625
0.999665
1.19327
1.9623
1.24078
0.655004
1.49429
1.96428
0.646233
1.56509
1.1995
0.861993
2.2398
1.18414
0.959246
1.86224
0.535697
1.17715
2.48418
0.450166
1.66867
2.22898
1.03948
1.27278
1.64014
1.37851
1.32235
1.17633
0.978248
0.324691
1.9326
1.59575
0.795194
1.67277
0.569926
0.933503
1.58471
0.667794
0.898851
2.48794
1.10359
1.3406
0.866565
0.531438
0.941434
1.85658
1.23337
1.2466
1.55814
0.740767
0.788651
1.23554
0.262114
1.4975
1.69678
3.29297
3.26999
3.29477
166
232
3.25501

SCALARS edge_force float
LOOKUP_TABLE default
0.5
0.5
0.5
0.5
0.5
0.5
0.5
0.5
0.5
0.5
0.5
0.5
0.5
0.5
0.5
0.5
0.5
0.5
0.5
0.5
0.5
0.5
0.5
0.5
0.5
0.5
0.5
0.5
0.5
0.5
0.5
0.5
0.5
0.5
0.5
0.5
0.5
0.5
0.5
0.5
0.5
0.5
0.5
0.5
0.5
0.5
0.5
0.5
0.5
0.5
0.5
0.5
0.5
0.5
0.5
0.5
0.5
0.5
0.5
0.5
0.5
0.5
0.5
0.5
0.5
0.5
0.5
0.5
0.5
0.5
0.5
0.5
0.5
0.5
0.5
0.5
0.5
0.5
0.5
0.5
0.5
0.5
0.5
0.5
0.5
0.5
0.5
0.5
0.5
0.5
0.5
0.5
0.5
0.5
0.5
0.5
0.5
0.5
0.5
0.5
0.5
0.5
0.5
0.5
0.5
0.5
0.5
0.5
0.5
0.5
0.5
0.5
0.5
0.5
0.5
0.5
0.5
0.5
0.5
0.5
0.5
0.5
0.5
0.5
0.5
0.5
0.5
0.5
0.5
0.5
0.5
0.5
0.5
2
0.5
2
0.5
2
0.5
0.5
2
0.5
2
0.5
2
0.5
0.5
2
0.5
2
0.5
2
0.5
0.5
2
0.5
2
0.5
2
0.5
0.5
2
0.5
2
0.5
2
0.5
0.5
2
0.5
2
0.5
2
0.5
2
2
2
2
2
2
2
0.5
0.5
2
0.5
0.5
0.5
0.5
0.5
0.5
0.5
0.5
0.5
0.5
0.5
0.5
0.5
0.5
0.5
0.5
0.5
0.5
0.5
0.5
0.5
0.5
0.5
0.5
0.5
0.5
0.5
0.5
0.5
0.5
0.5
0.5
0.5
0.5
0.5
0.5
0.5
0.5
0.5
0.5
0.5
0.5
0.5
0.5
0.5
0.5
0.5
0.5
0.5
0.5
0.5
2
0.5
0.5
2
0.5
0.5
0.5
0.5
0.5
0.5
0.5
0.5
0.5
0.5
0.5
0.5
0.5
0.5
2
0.5
0.5
0.5
0.5
2
0.5
0.5
0.5
0.5
0.5
0.5
0.5
0.5
0.5
2
0.5
2
0.5
0.5
0.5
2
0.5
0.5
0.5
0.5
0.5
2
0.5
2
0.5
0.5
2
0.5
0.5
0.5
0.5
0.5
2
0.5
0.5
0.5
0.5
0.5
0.5
0.5
0.5
0.5
0.5
0.5
0.5
0.5
0.5
2
0.5
0.5
0.5
0.5
0.5
0.5
0.5
0.5
0.5
0.5
0.5
0.5
0.5
0.5
0.5
0.5
0.5
0.5
2
0.5
0.5
2
0.5
2
0.5
0.5
2
0.5
0.5
0.5
0.5
0.5
0.5
0.5
0.5
0.5
0.5
0.5
0.5
0.5
0.5
0.5
0.5
0.5
2
0.5
0.5
0.5
0.5
0.5
0.5
0.5
0.5
0.5
0.5
0.5
2
0.5
0.5
0.5
0.5
0.5
0.5
0.5
0.5
0.5
2
0.5
0.5
0.5
0.5
0.5
0.5
0.5
0.5
2
0.5
0.5
0.5
0.5
0.5
0.5
0.5
2
0.5
0.5
0.5
2
0.5
0.5
0.5
0.5
0.5
0.5
0.5
0.5
0.5
0.5
0.5
0.5
0.5
2
0.5
0.5
0.5
0.5
0.5
0.5
0.5
0.5
2
0.5
0.5
0.5
0.5
0.5
0.5
0.5
0.5
0.5
0.5
0.5
0.5
2
0.5
0.5
0.5
0.5
0.5
0.5
0.5
2
0.5
0.5
0.5
0.5
0.5
0.5
0.5
0.5
0.5
0.5
0.5
0.5
2
0.5
0.5
0.5
0.5
0.5
0.5
0.5
0.5
0.5
0.5
0.5
0.5
0.5
0.5
0.5
0.5
0.5
0.5
0.5
0.5
0.5
0.5
2
0.5
0.5
2
0.5
0.5
0.5
0.5
0.5
2
0.5
0.5
0.5
0.5
0.5
0.5
0.5
0.5
0.5
0.5
0.5
0.5
0.5
0.5
0.5
0.5
0.5
0.5
0.5
0.5
0.5
0.5
0.5
2
0.5
0.5
0.5
0.5
0.5
0.5
0.5
0.5
0.5
0.5
0.5
2
0.5
0.5
2
0.5
0.5
0.5
0.5
0.5
0.5
0.5
0.5
0.5
0.5
0.5
0.5
2
0.5
2
0.5
0.5
0.5
0.5
0.5
0.5
0.5
0.5
0.5
0.5
0.5
0.5
0.5
0.5
0.5
0.5
0.5
0.5
0.5
0.5
0.5
0.5
0.5
0.5
2
0.5
0.5
0.5
0.5
2
0.5
0.5
0.5
0.5
0.5
0.5
0.5
0.5
0.5
0.5
0.5
0.5
0.5
0.5
0.5
0.5
0.5
2
0.5
0.5
0.5
0.5
0.5
2
0.5
0.5
0.5
0.5
0.5
2
0.5
0.5
0.5
0.5
0.5
0.5
0.5
0.5
0.5
0.5
0.5
0.5
0.5
0.5
0.5
0.5
0.5
2
0.5
0.5
0.5
0.5
0.5
0.5
0.5
0.5
0.5
0.5
0.5
2
0.5
0.5
0.5
0.5
0.5
0.5
0.5
0.5
0.5
0.5
0.5
0.5
2
0.5
0.5
0.5
0.5
0.5
0.5
0.5
2
0.5
0.5
0.5
0.5
0.5
0.5
0.5
0.5
0.5
0.5
0.5
0.5
0.5
0.5
0.5
0.5
0.5
2
0.5
0.5
0.5
0.5
0.5
0.5
2
0.5
0.5
0.5
0.5
0.5
0.5
0.5
0.5
0.5
0.5
0.5
0.5
0.5
2
0.5
0.5
0.5
0.5
0.5
0.5
0.5
0.5
0.5
0.5
0.5
0.5
0.5
0.5
0.5
0.5
0.5
0.5
0.5
0.5
0.5
2
0.5
0.5
0.5
0.5
0.5
0.5
0.5
0.5
0.5
0.5
0.5
0.5
0.5
0.5
0.5
0.5
0.5
2
0.5
0.5
0.5
0.5
0.5
0.5
0.5
0.5
0.5
0.5
0.5
0.5
0.5
0.5
0.5
0.5
0.5
0.5
0.5
2
0.5
0.5
2
0.5
0.5
0.5
0.5
0.5
0.5
0.5
0.5
0.5
2
0.5
0.5
0.5
0.5
0.5
0.5
0.5
0.5
0.5
0.5
0.5
0.5
0.5
0.5
0.5
0.5
0.5
0.5
0.5
0.5
0.5
0.5
0.5
2
0.5
0.5
0.5
0.5
0.5
0.5
0.5
0.5
0.5
0.5
2
0.5
0.5
2
0.5
0.5
0.5
0.5
0.5
0.5
0.5
0.5
0.5
0.5
0.5
0.5
0.5
0.5
0.5
0.5
0.5
0.5
0.5
0.5
0.5
0.5
0.5
2
0.5
0.5
0.5
0.5
0.5
0.5
0.5
0.5
0.5
0.5
0.5
0.5
0.5
0.5
0.5
0.5
0.5
0.5
0.5
0.5
0.5
0.5
0.5
2
0.5
0.5
0.5
0.5
0.5
0.5
2
0.5
2
0.5
0.5
0.5
0.5
0.5
0.5
0.5
0.5
0.5
0.5
0.5
0.5
0.5
0.5
0.5
0.5
0.5
0.5
0.5
0.5
2
0.5
0.5
0.5
0.5
0.5
0.5
0.5
0.5
0.5
0.5
0.5
0.5
0.5
0.5
2
0.5
0.5
0.5
0.5
0.5
0.5
0.5
0.5
0.5
0.5
0.5
2
0.5
0.5
0.5
0.5
0.5
0.5
0.5
0.5
0.5
0.5
0.5
0.5
2
0.5
0.5
0.5
0.5
0.5
0.5
0.5
0.5
0.5
0.5
0.5
0.5
0.5
0.5
0.5
0.5
0.5
0.5
0.5
0.5
0.5
0.5
0.5
0.5
0.5
0.5
0.5
0.5
0.5
0.5
0.5
0.5
0.5
0.5
0
0
0
0
0
0
