# vtk DataFile Version 2.0
2D-vertex
ASCII
DATASET UNSTRUCTURED_GRID
POINTS 1090 float
0.636259 -4.37184 0
3.08497 -4.14145 0
3.46488 -3.18936 0
2.42929 -2.13092 0
0.16023 -2.00526 0
-0.545155 -3.50019 0
3.99351 -3.15035 0
4.55892 -2.29026 0
3.61205 -0.784496 0
2.56846 -1.10868 0
1.38292 0.139914 0
-0.309103 0.600764 0
-1.06204 -0.681152 0
-1.21761 -0.721033 0
-1.7209 -2.39438 0
-1.20381 -3.27399 0
5.13137 -2.44145 0
5.93491 -1.55195 0
4.08419 -0.0343426 0
3.81515 -0.103757 0
2.92858 0.846824 0
1.86444 0.749421 0
1.17708 4.37444 0
0.327802 4.34221 0
-0.478314 2.45483 0
-1.67852 1.52944 0
-1.57789 -0.375344 0
-2.86718 -0.677479 0
-3.37091 -1.7147 0
-3.06329 -2.42251 0
7.00281 -1.52845 0
7.61694 -0.796367 0
7.42455 0.513644 0
5.19577 1.65984 0
5.6573 2.24455 0
3.29741 3.55602 0
2.51819 4.83893 0
1.63506 4.98726 0
0.688328 8.17953 0
-0.893196 8.20859 0
-0.552323 5.14456 0
-2.04058 4.18723 0
-3.08085 2.62674 0
-4.03676 2.65223 0
-4.76335 1.23367 0
-6.17046 0.913389 0
-6.44788 -0.153016 0
-4.92066 -1.49437 0
7.83967 1.14736 0
7.48407 2.18226 0
6.7261 2.59364 0
5.95953 4.64883 0
3.59844 5.81617 0
3.51708 6.69407 0
2.05526 8.30926 0
2.58364 9.01906 0
-1.86526 9.58461 0
-1.75783 8.65573 0
-2.99335 7.2969 0
-2.64765 5.14297 0
-4.27882 5.43395 0
-5.65389 4.10222 0
-7.56044 2.59327 0
-7.41304 2.06023 0
8.39316 2.60583 0
8.39309 2.60833 0
6.87231 4.63973 0
7.28798 5.84841 0
5.99434 7.10698 0
6.19324 7.79409 0
5.37461 8.80776 0
5.08646 9.33132 0
-2.58675 11.8891 0
-2.85205 11.5309 0
-6.00177 8.55941 0
-5.32937 7.78501 0
-6.04523 6.39599 0
-5.96258 6.23582 0
-8.54864 3.09449 0
-8.39512 2.74167 0
9.9186 2.94211 0
10.2182 3.90383 0
9.39747 4.87227 0
10.5544 5.31928 0
10.2165 6.83942 0
10.3891 7.55259 0
9.47892 12.1696 0
10.4475 14.2544 0
-9.56334 13.5453 0
-9.56315 13.5428 0
-9.97404 7.6769 0
-9.67925 7.16087 0
-10.0187 6.52211 0
-9.27023 5.43441 0
-10.0756 4.17053 0
-9.60624 3.19213 0
4.03524 -5.98025 0
5.22953 -5.40667 0
6.05861 -4.98245 0
8.375 -3.33376 0
9.63337 -1.86668 0
10.9082 0.503505 0
10.9986 0.679022 0
11.6715 1.77179 0
12.4039 3.72237 0
12.5918 4.51717 0
12.6639 8.04553 0
13.037 14.7395 0
-13.172 13.9728 0
-12.5713 7.62063 0
-12.4791 6.34151 0
-12.0855 3.79786 0
-11.1917 1.86562 0
-10.317 0.775086 0
-9.70074 0.0594309 0
-8.77064 -1.25411 0
-6.80101 -3.3572 0
-4.69782 -4.718 0
-2.57516 -5.66918 0
0.445101 -6.42114 0
12.4825 9.51742 0
8.37725 9.62565 0
-12.8543 10.081 0
-9.94706 10.9321 0
-0.220851 2.11916 0
1.06977 2.23971 0
-1.79077 4.16004 0
-1.00832 2.43838 0
4.5489 3.77982 0
4.93448 4.70869 0
0.367081 9.79288 0
0.157972 8.66558 0
-1.07813 6.49364 0
-2.25516 6.18227 0
5.95851 4.6511 0
5.08047 6.61458 0
4.09436 7.09894 0
4.08052 8.47328 0
2.0373 10.0537 0
2.03535 10.0522 0
-2.33845 9.79281 0
-3.89868 7.98417 0
-3.44945 7.30491 0
-4.41006 6.01872 0
1.5144 -0.501284 0
0.0845156 -1.5252 0
6.59633 0.741375 0
5.53701 -0.820583 0
5.19373 1.66128 0
3.15691 2.43378 0
-8.84463 9.32757 0
-5.82164 9.26053 0
3.15441 2.43381 0
1.71336 3.08419 0
-9.28408 5.37261 0
-7.86963 4.77776 0
-0.576091 -3.51674 0
-0.935982 -6.20885 0
15.2629 30.1039 0
17.9958 29.8068 0
1.44134 -4.01186 0
1.5208 -2.55531 0
2.51333 7.05765 0
1.35719 6.01715 0
8.21046 9.14928 0
5.37474 8.81027 0
8.52231 19.9224 0
-0.128891 11.7587 0
-2.49949 -2.66924 0
-3.15397 -5.43855 0
-4.17947 0.32249 0
-5.05378 -0.873842 0
-5.35246 -4.34937 0
-4.32464 -1.8799 0
0.429004 6.47202 0
-0.473286 6.02796 0
9.37048 4.72943 0
7.80081 3.90156 0
5.76108 -2.08848 0
7.52438 -4.04461 0
2.00126 -6.4582 0
1.99395 -4.43215 0
-6.00439 -0.768091 0
-7.56867 -2.67472 0
-5.23969 3.00936 0
-6.55079 1.74538 0
7.68635 0.651098 0
10.1862 -0.969096 0
-12.346 5.18723 0
-9.29511 5.3928 0
12.8185 6.5683 0
10.73 6.33373 0
-2.64143 1.69511 0
-3.53179 0.321949 0
-9.26984 -0.505764 0
-6.53041 1.1763 0
-3.4726 4.93871 0
-4.20513 2.94256 0
-6.70579 4.97627 0
-6.27705 4.18422 0
8.25091 6.03624 0
8.44534 6.52105 0
-0.916574 11.5897 0
-0.66652 10.4481 0
12.4869 9.52651 0
9.79319 10.7692 0
9.62676 13.0452 0
1.70838 10.6395 0
7.80749 7.78495 0
8.99941 8.51258 0
-7.18869 6.48392 0
-7.53387 7.23116 0
-2.36355 13.902 0
0.595919 13.0852 0
-9.8846 11.4251 0
-4.05844 11.3539 0
8.99801 8.51467 0
12.5115 9.06893 0
-10.6734 12.5675 0
-13.2272 13 0
-12.6273 8.59914 0
-9.10869 8.88182 0
12.4405 17.4766 0
9.84326 15.7264 0
8.04186 10.0659 0
5.90844 10.2191 0
-9.10875 8.8793 0
-7.22684 8.20614 0
2.02364 13.6237 0
3.7852 11.9828 0
-4.34078 9.74798 0
-3.57756 9.1102 0
4.49438 11.7372 0
3.61686 10.1739 0
12.7998 11.2133 0
9.98867 11.3067 0
-2.97648 13.467 0
-4.49355 12.3147 0
-13.6828 25.5836 0
-0.131974 14.715 0
-6.40951 9.79709 0
-4.35726 11.5547 0
-12.7079 9.31575 0
-9.2969 9.91567 0
5.51051 15.8346 0
7.74327 13.8665 0
-1.29141 13.472 0
-0.750032 11.7933 0
-10.2608 16.8087 0
-13.4836 15.7684 0
17.8727 35.8078 0
1.93359 14.7359 0
-3.04297 16.175 0
-10.2058 17.2066 0
-10.6298 11.9018 0
-13.0843 11.1117 0
-6.49509 13.593 0
-5.93028 12.5073 0
-6.28682 10.5562 0
-7.08636 11.4768 0
13.0065 12.9098 0
10.4066 13.6164 0
-11.1117 18.2827 0
-14.1115 18.1673 0
5.68298 11.3269 0
4.50494 11.6987 0
9.7878 14.9208 0
7.79026 14.4294 0
3.59512 13.1494 0
6.18351 15.1749 0
-2.18894 15.4093 0
-0.719882 15.7298 0
13.8106 19.5927 0
11.0766 20.8118 0
-0.0198066 14.6929 0
0.892296 15.3978 0
11.8625 22.5204 0
3.51911 15.2969 0
12.8851 12.0442 0
9.76368 12.5373 0
-8.34292 13.0635 0
-8.36244 12.1936 0
-9.19378 10.2596 0
-7.08831 11.0968 0
-9.8469 16.4337 0
-6.09263 15.4262 0
18.5601 40.8469 0
20.3071 41.5899 0
1.43326 12.9883 0
2.25559 11.446 0
-3.94948 15.1162 0
-3.82264 13.8726 0
-13.3018 15.0269 0
-10.0392 15.7551 0
-0.485863 17.3052 0
-0.542659 17.2648 0
7.32618 12.2228 0
6.88921 13.1371 0
8.27178 10.5726 0
7.19968 11.9552 0
-11.0463 17.7223 0
-13.7286 16.5545 0
-2.7662 16.1772 0
-1.80057 17.6445 0
1.18706 16.5523 0
2.76174 16.5486 0
5.85584 13.2981 0
5.55952 13.9321 0
-7.34801 16.7349 0
-7.11873 17.2139 0
-8.98963 14.3191 0
-6.30018 14.5623 0
3.50219 15.2544 0
4.29934 14.002 0
-10.511 20.26 0
-3.91065 17.4175 0
14.3419 20.5664 0
11.9801 21.6872 0
-16.6598 24.5805 0
-14.184 24.7704 0
7.8973 16.2165 0
7.07805 15.2683 0
12.4281 17.6007 0
8.62198 19.0583 0
3.49686 17.8668 0
5.26077 18.4947 0
0.815777 19.2724 0
2.88847 18.3212 0
-1.10788 25.2784 0
-3.7356 23.8644 0
-3.29277 22.1959 0
-4.50678 19.3323 0
-6.11344 14.3095 0
-4.01708 13.7548 0
-9.69457 19.1909 0
-8.14311 18.1516 0
7.34497 23.1189 0
6.59413 20.2922 0
-13.1846 14.3169 0
-9.32663 14.8096 0
-9.27897 14.935 0
-7.08622 15.9656 0
-0.476773 19.513 0
-0.235272 19.2021 0
14.8557 29.3611 0
1.90988 22.7321 0
17.0586 25.9178 0
14.9394 26.4212 0
-15.1111 20.0606 0
-12.3385 20.8589 0
-5.3027 15.7968 0
-5.14629 17.0832 0
7.34812 17.0782 0
6.21233 17.0735 0
0.93483 16.9604 0
1.53641 18.0377 0
10.01 15.3846 0
12.911 15.7188 0
12.421 17.5548 0
7.89692 16.5452 0
-11.9844 21.8537 0
-4.49089 19.7108 0
-2.3199 18.6651 0
-3.55285 18.5155 0
3.37163 23.0772 0
3.96119 22.3992 0
-5.7303 17.5778 0
-5.62657 18.7458 0
3.50704 17.3 0
5.52731 16.3899 0
-2.05676 22.082 0
-0.482957 23.4725 0
2.00445 28.2459 0
12.4747 29.5839 0
-16.3433 42.9706 0
-17.8976 43.3792 0
-10.3812 50.9777 0
-2.73516 24.765 0
-14.2696 18.4542 0
-12.0996 20.4662 0
-1.90354 19.4151 0
-3.56482 20.3769 0
-7.38994 20.3069 0
-5.90635 20.6698 0
13.0496 25.5408 0
11.8711 28.5787 0
4.47765 20.7087 0
6.08227 21.0006 0
11.0463 20.9312 0
8.08452 21.9406 0
12.7837 18.1352 0
10.8134 20.5018 0
-13.7241 23.9416 0
-3.85768 21.6008 0
16.197 24.0927 0
14.4581 25.5789 0
1.92639 20.3207 0
3.09156 19.5457 0
-15.8096 21.5363 0
-13.7151 22.8543 0
-2.00055 26.8652 0
3.80664 24.2828 0
0.071247 20.9303 0
1.57392 21.3154 0
-8.13597 18.278 0
-6.8299 19.2549 0
7.65864 18.244 0
6.17129 19.1001 0
-1.58278 21.3003 0
-2.2919 20.1361 0
12.4179 17.5656 0
7.7936 17.8257 0
-2.79971 24.4303 0
-1.54106 23.2367 0
-5.84001 21.2886 0
-4.87413 21.9224 0
-4.69479 24.0663 0
-5.27455 23.2735 0
-14.1176 18.1754 0
-10.4253 19.8705 0
5.15814 24.3074 0
5.72439 23.1562 0
-0.328815 29.4061 0
8.57657 52.7136 0
-8.19981 21.231 0
-7.92379 22.3402 0
2.7067 54.6625 0
2.3841 56.3899 0
-10.4772 27.3437 0
-8.42447 29.7053 0
9.16424 20.3404 0
7.95154 21.6205 0
14.8445 21.4894 0
12.3216 22.8443 0
5.41766 22.5851 0
6.25418 21.4023 0
1.97769 20.9774 0
3.68488 21.5332 0
3.22102 24.8917 0
5.30144 28.3674 0
4.27218 19.9513 0
5.36918 18.8724 0
1.49063 23.1458 0
1.77954 24.409 0
12.5136 17.7734 0
9.14165 20.2293 0
-7.02281 35.3541 0
-4.94768 31.3769 0
-14.2636 27.1144 0
-16.9788 26.6714 0
-0.333062 21.4166 0
0.148656 22.8044 0
-7.33909 22.5199 0
-7.04204 23.3209 0
-9.69974 19.5587 0
-7.38989 20.3044 0
8.7115 25.3889 0
9.60082 23.5604 0
-16.4409 23.3279 0
-13.9676 23.5779 0
-7.49581 24.0545 0
-7.5362 25.6342 0
4.88562 32.304 0
8.94076 30.9602 0
-14.6306 29.0275 0
-10.2295 28.3377 0
8.58983 25.8875 0
5.73759 27.2775 0
2.37569 27.9038 0
1.26041 26.1526 0
-4.97797 25.823 0
-4.86026 25.8988 0
18.8094 39.521 0
20.6671 39.4281 0
-0.224276 24.4805 0
1.13518 24.9537 0
-9.54456 23.1349 0
-9.69718 23.5549 0
6.34963 36.7507 0
8.59107 45.704 0
-3.4298 25.5993 0
-2.90311 26.7206 0
14.7262 26.8821 0
12.4531 27.333 0
-14.8936 45.9226 0
-16.7203 46.5908 0
-15.5246 43.7179 0
-8.43212 34.6222 0
9.83758 23.0027 0
9.36807 22.1001 0
-10.7881 25.5031 0
-9.19289 24.1901 0
12.7703 25.0642 0
10.3429 24.8995 0
-1.96449 36.7371 0
-0.617187 30.9231 0
-9.83575 21.1063 0
-10.3552 22.075 0
17.4514 27.3514 0
15.3083 27.7018 0
15.2958 22.2606 0
13.0486 23.8651 0
17.0191 33.6552 0
13.5303 33.4265 0
-1.97618 29.4013 0
-1.60549 27.8016 0
-15.8965 34.2841 0
-17.8956 33.6794 0
3.33381 25.8277 0
2.18076 26.5988 0
8.11873 29.9916 0
7.17339 26.997 0
5.7596 24.9106 0
4.82212 25.928 0
-6.37668 28.8688 0
-5.82302 29.5058 0
7.84766 23.8291 0
7.6728 24.3205 0
6.17914 30.011 0
6.65554 32.4424 0
-14.212 27.2559 0
-11.1219 27.1429 0
18.2766 35.2643 0
20.3664 35.1743 0
-9.05625 26.5483 0
-6.22931 28.2314 0
-14.3376 36.6952 0
-10.8001 33.2823 0
3.4113 31.6316 0
2.86451 31.9962 0
-16.8201 25.6893 0
-13.9059 25.9637 0
-17.1896 28.0045 0
-15.0124 28.2613 0
[...]
CELL_DATA 546
SCALARS cell_division_count float
LOOKUP_TABLE default
1
0
1
0
0
0
1
0
0
1
1
1
1
1
1
1
0
1
1
1
1
1
1
0
1
1
1
1
1
1
1
1
2
4
3
1
1
0
0
1
1
0
0
0
1
2
3
0
1
0
0
1
1
1
1
1
0
0
3
0
1
2
3
1
1
1
1
1
1
1
2
2
1
1
1
1
2
1
1
1
3
1
1
2
9
1
1
1
1
1
1
1
1
1
1
1
1
1
1
1
1
1
2
3
5
2
1
3
5
2
2
2
5
3
2
4
2
3
5
5
6
3
3
6
3
4
6
9
3
5
4
4
8
5
6
6
5
4
5
14
5
5
5
7
5
4
6
4
10
5
3
4
6
6
6
7
6
6
11
7
8
7
6
7
8
18
11
6
8
9
4
7
8
13
6
7
7
8
8
3
6
12
10
11
9
7
11
13
9
15
8
11
10
11
9
9
5
14
6
10
8
13
10
10
8
11
6
10
11
14
8
11
13
11
9
12
9
8
9
11
13
9
11
6
16
13
11
12
11
13
8
13
13
12
15
14
10
8
12
13
14
11
12
12
16
9
14
15
15
12
7
9
14
15
11
14
14
14
13
13
12
12
8
12
16
14
8
9
17
14
15
16
14
14
13
11
14
14
14
14
14
15
14
8
15
9
9
14
13
13
14
12
12
10
12
12
14
15
7
13
13
15
11
14
14
14
8
13
15
12
16
15
15
15
13
14
15
16
12
15
18
9
11
14
16
14
16
17
14
15
12
7
11
13
18
14
15
13
16
16
13
16
15
12
15
14
17
13
10
9
14
17
13
15
14
15
10
17
15
15
15
15
14
13
13
15
14
18
16
15
16
15
15
15
17
8
16
15
15
16
13
14
10
18
16
15
11
16
17
14
17
16
15
9
16
15
14
14
19
15
17
14
12
15
19
18
14
17
8
11
11
14
15
12
17
15
15
16
17
15
16
15
16
16
16
17
15
15
15
17
18
16
18
17
17
17
15
18
14
16
18
11
11
13
13
16
16
18
18
18
17
15
17
17
17
15
17
15
17
16
18
12
11
16
17
17
19
12
16
19
15
16
15
16
18
17
17
13
18
18
17
17
18
18
19
13
13
16
16
15
16
16
18
16
17
15
17
17
16
13
16
18
19
17
18
15
18
19
17
16
18
18
19
18
18
16
11
19
17
17
17
14
18
17
16
16
18
17
17
18
12
18
12
17
17
18
17
17
18
19
16
17
12
17
13
17
SCALARS cell_time float
LOOKUP_TABLE default
2471
2.22229e+13
2491
4.48239e+13
2.67348e+11
1.25633e+10
2501
2.68224e+09
9.19769e+11
2491
2491
2481
2451
2501
2421
2461
1.22848e+06
2501
2471
2501
2501
2401
2441
26283.4
2501
2501
2501
2501
2501
2391
2451
2391
2351
2091
2241
2341
2481
1.00108e+18
2.94533e+15
2451
2441
107583
3845.76
2557.34
2431
2331
2131
2548.01
2441
5199.01
2816.18
2421
2461
2471
2481
2451
1.12104e+13
23666.3
1921
4537.96
2451
2371
2191
2501
2501
2501
2501
2501
2501
2501
2381
2261
2501
2491
2491
2491
2321
2481
2481
2481
1621
2471
2471
2331
1251
2471
2461
2461
2451
2451
2451
2451
2451
2441
2441
2441
2431
2421
2421
2401
2391
2391
2381
2251
2071
2351
2341
2191
1971
2331
2331
2331
1621
1911
2321
1941
2261
2251
1981
1941
1831
2211
2191
1821
2191
1911
1921
1611
2131
1981
2111
2111
891
1921
1811
1841
2041
1821
2011
841
1981
1981
1971
1671
1101
1941
1711
1691
1341
1921
1911
1911
1911
1901
1841
1641
1831
1821
1181
1251
1171
1631
1221
1561
1631
161
1311
1711
1701
1251
1691
1671
1671
521
1031
1501
1641
1361
1631
1621
1351
1041
1491
1251
1571
1561
1191
981
671
181
1311
1361
1481
1071
1251
1051
1451
841
1431
1431
831
851
1401
1371
1361
1361
1351
1341
1321
861
1311
1301
581
1291
511
741
1251
1031
1251
1251
971
1251
1241
1221
401
401
1191
1191
1181
961
1171
721
711
681
681
881
1111
331
1091
1081
251
1081
701
131
261
1051
841
691
161
1041
731
821
401
721
241
721
721
721
791
961
781
781
411
741
361
461
891
891
181
881
311
141
861
661
851
171
851
841
841
191
841
361
841
831
701
641
821
701
701
791
341
781
771
761
741
741
361
591
731
731
721
721
331
721
721
721
531
711
441
701
161
291
701
441
701
521
691
411
681
681
61
671
671
501
171
661
41
31
491
161
11
631
391
621
91
601
591
581
391
121
571
341
561
551
371
551
191
531
531
371
531
211
521
321
521
261
351
171
331
501
161
351
491
221
131
111
461
51
321
441
171
441
311
441
111
411
411
411
411
401
401
401
401
71
281
131
391
391
31
381
31
131
371
371
361
361
361
31
91
131
11
351
1
351
71
121
341
191
331
41
331
331
331
181
71
321
191
321
191
311
311
311
71
171
301
141
221
291
291
141
51
281
141
11
21
91
261
31
251
251
141
241
241
101
221
121
111
91
61
21
31
91
191
1
191
191
191
181
181
31
11
181
171
171
171
11
41
21
171
61
161
161
161
31
21
11
151
151
151
31
31
141
11
141
11
1
131
11
131
131
121
121
121
121
1
111
111
11
111
101
101
91
91
91
91
91
71
71
71
71
61
61
61
51
51
41
41
41
31
31
31
31
31
31
31
31
31
31
21
21
21
21
11
11
11
11
11
11
11
11
11
11
1
1
1
1
SCALARS cell_area float
LOOKUP_TABLE default
3.24154
3.29961
3.29294
3.35558
3.35089
3.34312
3.32615
3.3739
3.34822
3.28124
3.3361
3.28163
3.38592
3.31862
3.30534
3.32936
3.39789
3.28827
3.34583
3.39717
3.39148
3.33882
3.3386
3.37122
3.35765
3.37526
3.4394
3.40152
3.39064
3.32863
3.24619
3.29608
3.35051
3.33629
3.4445
3.24881
3.34427
3.25229
3.26074
3.24822
3.23626
3.27733
3.26116
3.27773
3.21916
3.28325
3.25451
3.26206
3.25822
3.24742
3.26717
3.27277
3.21606
3.25677
3.24443
3.24187
3.20918
3.21636
3.26523
3.19531
3.24575
3.30527
3.26747
3.27979
3.3366
3.28415
3.39837
3.35109
3.27904
3.35594
3.45174
3.35092
3.35624
3.28628
3.24794
3.27409
3.34077
3.35072
3.23046
3.22174
3.2183
3.25821
3.33455
3.3305
3.36979
3.22223
3.29606
3.25186
3.36935
3.2867
3.22414
3.20343
3.21546
3.30316
3.25099
3.24372
3.25782
3.32345
3.26253
3.29953
3.28891
3.26248
3.40126
3.23086
3.29254
3.23918
3.32762
3.38453
3.29034
3.27803
3.25703
3.27085
3.27265
3.29244
3.24454
3.31587
3.35582
3.40475
3.25357
3.42479
3.302
3.34833
3.27025
3.34773
3.40609
3.25937
3.44187
3.39718
3.21448
3.27927
3.33416
3.20541
3.28425
3.37021
3.31406
3.35402
3.36607
3.2622
3.36519
3.30803
3.24799
3.28006
3.31466
3.27325
3.24203
3.34782
3.40044
3.26773
3.3768
3.31297
3.29939
3.23109
3.37294
3.36107
3.38374
3.38695
3.33805
3.30844
3.3555
3.2729
3.25765
3.41126
3.28624
3.3199
3.3694
3.35325
3.3698
3.32814
3.29926
3.36608
3.26963
3.325
3.43242
3.29267
3.27633
3.2293
3.36145
3.36873
3.39216
3.23787
3.29731
3.31041
3.4366
3.3909
3.39086
3.31727
3.38728
3.40319
3.30232
3.2629
3.27455
3.4118
3.40382
3.28902
3.35692
3.27115
3.23514
3.29094
3.2408
3.34361
3.25905
3.34073
3.42115
3.35339
3.30217
3.39235
3.2883
3.34949
3.38589
3.36788
3.30814
3.39422
3.39443
3.35611
3.26369
3.31831
3.34362
3.27637
3.37419
3.37191
3.4469
3.35266
3.40217
3.27816
3.3774
3.29301
3.39972
3.33029
3.30535
3.37095
3.21857
3.35989
3.43228
3.26458
3.34735
3.41355
3.42869
3.28682
3.39158
3.38632
3.29278
3.37206
3.26946
3.32118
3.29526
3.33875
3.38348
3.2982
3.30563
3.3177
3.29536
3.24975
3.32705
3.37417
3.30074
3.39286
3.3149
3.35007
3.40432
3.33989
3.34023
3.30734
3.24064
3.36476
3.37469
3.39924
3.27446
3.28361
3.37781
3.36889
3.35794
3.31498
3.37878
3.38727
3.38072
3.3004
3.34391
3.3395
3.35668
3.30937
3.26407
3.34319
3.36554
3.2625
3.37974
3.25868
3.30019
3.29279
3.34643
3.34632
3.3548
3.30888
3.36423
3.28757
3.38623
3.35503
3.36871
3.39265
3.3139
3.38863
3.33348
3.37844
3.34172
3.34751
3.34587
3.32687
3.26394
3.39646
3.37547
3.30983
3.33266
3.31346
3.31332
3.33499
3.3915
3.30644
3.40059
3.37311
3.35498
3.34769
3.33119
3.30621
3.29313
3.3393
3.35912
3.34942
3.27612
3.28425
3.37344
3.30796
3.30163
3.28564
3.30543
3.32897
3.35859
3.37065
3.34781
3.29025
3.37218
3.33845
3.32675
3.29418
3.28158
3.30052
3.3093
3.34429
3.32025
3.33392
3.24959
3.34338
3.41346
3.26189
3.32982
3.33513
3.30988
3.3527
3.31178
3.35064
3.33707
3.34621
3.30754
3.30681
3.35986
3.322
3.29617
3.29093
3.32766
3.35593
3.36812
3.33252
3.37424
3.31812
3.37926
3.34587
3.31689
3.28128
3.36715
3.28755
3.36896
3.35759
3.30917
3.30459
3.31661
3.3192
3.32846
3.30439
3.29287
3.35767
3.38732
3.29509
3.31941
3.30954
3.31728
3.31828
3.28795
3.36125
3.30353
3.28949
3.35037
3.33549
3.30999
3.31265
3.35618
3.36528
3.3074
3.3179
3.33156
3.29001
3.295
3.30407
3.30788
3.34406
3.35115
3.30914
3.33058
3.30073
3.32009
3.33132
3.33383
3.33969
3.29022
3.34484
3.32054
3.40235
3.35857
3.32722
3.31099
3.33803
3.36007
3.36234
3.2982
3.34594
3.30426
3.30625
3.30593
3.2775
3.30877
3.3205
3.31469
3.31437
3.35323
3.29826
3.24197
3.3135
3.31246
3.27924
3.31804
3.33708
3.30062
3.3558
3.3155
3.3209
3.27886
3.39593
3.36884
3.30799
3.30747
3.31574
3.33817
3.27957
3.31356
3.29171
3.30946
3.36626
3.33763
3.36586
3.30882
3.32714
3.30491
3.37081
3.28875
3.34713
3.3193
3.32668
3.30718
3.31199
3.32172
3.32328
3.29175
3.33456
3.28994
3.29348
3.32867
3.32195
3.30121
3.3582
3.30667
3.27937
3.28187
3.30829
3.35604
3.34509
3.35631
3.29087
3.38254
3.35226
3.30703
3.30084
3.33718
3.3181
3.33492
3.27088
3.35871
3.32866
3.32807
3.33122
3.32691
3.37743
3.35989
3.30567
3.38358
3.32709
3.33726
3.30007
3.36544
3.30155
3.26375
3.3489
3.28716
3.31391
3.32957
3.35301
3.33549
3.33333
3.34968
3.32287
3.35021
3.31238
3.25917
3.26432
3.30928
3.26155
3.29755
3.28008
3.30689
3.27213
3.31972
3.30113
3.29665
3.28472
3.31565
3.33663
446
3.39718
3.3135
311
SCALARS cell_perimeter float
LOOKUP_TABLE default
6.92933
6.94334
6.96316
7.19916
7.12946
6.81945
7.08052
7.6576
6.93685
6.92664
7.39036
7.00328
6.79883
7.24677
7.04551
6.79517
7.17753
6.97013
6.92355
6.98174
6.94436
7.27573
7.24558
7.58627
7.60094
6.95801
7.97812
7.14476
6.90471
7.07284
6.94922
7.05361
8.18605
7.0343
7.10516
7.34448
7.90728
7.52257
7.83026
7.64187
8.27378
8.6705
8.19567
7.76848
7.38441
9.62921
8.04542
7.66503
8.05562
7.66176
8.13423
8.45194
7.78727
8.07467
7.6748
7.21704
7.43888
7.39176
8.75663
7.32553
7.73136
9.72734
8.64061
7.03654
7.15426
7.24394
6.9024
7.08927
7.18584
6.86602
7.79146
7.07151
7.17468
7.07731
7.24037
7.21936
7.79406
7.27335
6.93601
7.8748
8.2522
6.79068
7.02203
7.85829
7.5535
7.98271
6.82374
7.9838
7.08656
6.99922
7.80046
7.31436
7.65589
7.13346
7.93581
7.97785
7.36898
6.94657
8.23236
7.19218
7.17296
6.94623
7.11788
8.06671
7.22039
7.03458
6.85535
7.43329
7.32135
8.6108
8.6787
8.59179
10.1831
7.21719
7.24308
7.05974
6.91852
7.40653
8.27534
7.08868
7.66584
7.28702
8.9744
7.18823
7.25582
8.52315
7.18796
7.09072
7.72952
7.02846
7.28978
7.79802
8.06015
7.34338
7.31203
7.07155
7.04874
8.04163
6.93431
7.27419
8.2211
6.91575
7.58247
7.57609
7.29911
7.22832
7.23595
9.20424
7.0971
7.33581
7.3071
8.14949
7.07999
7.16087
6.8241
6.84324
8.02552
6.99985
7.57041
7.93223
7.62605
6.8477
10.0009
7.33311
7.0922
6.85325
6.98451
7.17059
7.43526
7.1671
9.42583
7.87163
7.12381
7.47039
7.34934
8.1176
7.00001
7.09877
7.05435
7.99401
10.9135
6.94351
6.98965
7.08738
6.89267
7.35539
6.90638
6.92211
7.17437
7.01175
9.34017
7.01938
7.37865
7.28307
6.92706
7.18715
8.26251
7.27473
7.45408
6.97898
8.3252
7.05338
7.23036
7.06091
7.07557
6.89307
10.4447
7.06046
6.95265
6.95558
9.91567
6.93136
6.99292
7.0731
7.33412
7.02449
7.63533
8.03557
7.0377
7.03036
7.01533
7.05294
7.03334
9.47289
7.33081
7.91909
7.08237
7.12689
7.42193
7.14957
7.62643
7.17203
7.08642
7.2853
7.22063
6.94302
7.00374
7.2138
6.92369
7.09413
6.83262
6.95827
7.51042
7.20089
6.87262
6.95159
6.83236
7.14019
6.93229
7.02242
7.64051
8.02412
6.85529
7.11844
7.12948
7.25466
7.17978
7.45321
6.92658
7.17419
7.41038
7.58542
7.34588
7.19944
7.15096
6.94834
7.92653
7.72869
6.83934
7.18862
7.05261
7.07872
6.94935
7.63532
6.98071
7.19648
7.02842
7.32131
7.39696
7.04266
7.41403
6.88541
6.9903
8.48872
6.81909
7.31123
8.20897
7.3712
7.1339
7.06664
6.99799
7.64161
7.30773
7.45119
7.15177
6.93924
7.08125
7.23422
7.90757
7.05439
7.14255
6.98585
8.54614
7.18439
7.12867
7.14364
7.71039
7.02406
6.99168
7.71387
7.00254
7.38661
7.02935
6.82427
7.17369
7.10999
7.03819
7.05109
6.84795
7.20607
7.08444
7.09159
7.52861
7.0009
6.80965
7.22528
6.91747
7.27588
6.87204
6.95869
7.41456
7.32539
7.12966
7.01817
7.17517
7.02624
7.63899
7.35095
6.95853
7.1558
7.03986
6.93207
7.24902
8.16509
6.98593
7.1801
6.9839
6.8895
7.41153
8.90736
7.38387
6.99178
7.46433
7.11287
7.18652
6.80999
7.23566
6.8188
6.90697
6.95216
6.88813
6.93473
6.77851
7.10107
7.26271
6.92362
7.07718
7.21293
7.27881
7.0246
6.88716
7.08964
6.90661
7.04422
6.90149
7.44427
7.89486
7.01516
7.276
7.01177
8.43783
6.83064
7.16538
7.11651
6.90332
7.00057
7.10857
7.03586
6.84177
6.99333
6.85032
6.97983
6.84444
8.39429
6.9889
6.94894
7.15663
7.38181
6.94798
6.76676
7.29819
6.89058
7.07069
6.87898
6.90429
6.99648
6.9408
7.10368
7.33014
7.1927
8.14777
6.95535
7.01911
7.28123
6.94054
6.96323
6.95332
6.92479
7.09634
6.96203
6.9819
6.824
6.88205
7.25234
7.01808
7.07081
6.81736
7.31028
6.87081
6.76001
7.03436
7.07848
7.03964
6.80367
6.83832
6.973
6.89156
7.08112
6.82106
6.91428
6.98148
7.12561
7.30382
7.34305
7.20482
7.03066
6.80247
7.00777
6.81481
6.8835
7.02363
6.85456
6.90391
6.73017
7.01769
6.92049
7.06251
7.13275
7.05157
6.97556
7.30576
7.20749
7.19504
6.92604
6.88453
6.98729
7.04039
7.12134
7.39016
6.93907
6.93813
6.96708
7.07864
6.95807
7.19317
6.87051
6.91492
7.16253
7.0055
6.95104
6.98257
7.03455
7.00515
6.93095
7.12662
7.31972
7.3041
6.9852
7.00451
6.82362
7.05398
7.11122
6.90015
6.9594
7.03583
7.04943
7.02391
7.15058
6.87191
7.4049
7.06818
7.25407
6.91724
6.89309
7.0768
6.82668
7.09239
6.96108
7.03657
6.9404
6.91136
7.01147
7.26301
7.17025
6.87953
6.88218
7.31432
7.01227
7.31604
6.98651
6.91272
7.57143
6.93287
7.01496
7.49533
6.90065
7.04417
7.05498
6.91293
7.05999
7.10847
7.04733
7.40501
7.24504
6.92644
7.23331
6.95347
6.96497
7.07096
7.0294
7.03264
7.01235
422
3.28006
3.31574
325
SCALARS cell_frequency_modifier float
LOOKUP_TABLE default
2.22676e+18
7.12388e+16
2.18456e+17
2.15158e+15
6.27891e+14
1.56405e+14
3.71689e+12
2.47397e+13
1.00736e+15
5.08827e+16
2.88528e+13
2.01048e+15
9.04148e+10
2.06756e+12
4.30944e+14
5.7694e+14
1.02308e+13
7.10271e+13
7.55462e+10
1.27427e+09
8.78613e+10
1.13352e+12
1.10473e+13
9.58675e+11
7.10625e+10
5.62164e+09
8.18585e+08
2.08537e+09
3.81533e+10
2.67373e+11
2.20767e+14
4.60526e+12
3.53557e+09
5.07904e+08
3.11315e+07
6.3839e+12
1.05876e+11
1.06553e+19
3.75942e+18
7.37366e+17
1.50569e+16
3.58719e+15
1.45682e+15
7.35956e+13
1.79665e+13
3.38349e+11
4.40344e+10
3.5926e+12
1.61315e+13
1.11028e+15
2.68806e+15
7.0485e+15
1.06529e+18
5.27404e+18
10000
10000
3.06248e+17
4.28961e+14
3.8647e+08
3.45984e+14
2.86617e+17
5.0511e+09
1.24727e+11
4.99474e+15
4.14125e+12
2.26866e+14
9.90408e+08
1.21094e+10
1.61975e+13
8.14718e+09
1.76936e+08
4.79603e+08
1.77255e+10
3.98703e+16
1.40257e+16
6.66778e+14
2.41602e+09
9.95394e+11
1.18435e+14
10000
3.47307e+08
2.64852e+18
2.10089e+10
1.72119e+09
26833.7
4.71919e+18
2.02107e+16
1.51134e+18
9.83773e+09
4.04792e+13
2.57037e+18
10000
1.21575e+17
2.4628e+13
4.56448e+16
5.28126e+13
3.57815e+12
3.01943e+13
2.24052e+16
2.4854e+13
1.92408e+14
1.25704e+13
1.80684e+08
6.59172e+10
2.35392e+09
2.33319e+12
1.92154e+10
1.66363e+07
3.80722e+10
8.50406e+11
4.62163e+09
8.57348e+11
1.98089e+08
5.78878e+10
1.50233e+12
1.0809e+08
2.42516e+09
1.29789e+08
2.00738e+10
3.0804e+06
7.86528e+06
4.69646e+08
3.26463e+11
5.20172e+06
2.593e+07
1.80002e+08
1.00228e+06
325391
1.49432e+10
9.78471e+09
1.83291e+08
2.6984e+09
134032
5.26024e+07
9.08576e+06
2.87012e+07
5.08446e+06
7.01719e+06
8.8e+06
21350.7
7.52593e+09
1.10081e+10
1.506e+09
3.8427e+08
304.564
8.9831e+07
3.82331e+06
9.6098e+08
1826.12
1.08286e+08
7.1096e+09
8.43338e+07
899977
2.11958e+06
6.94857e+06
754644
1.72993e+07
4.13783e+07
41317.2
3.02356e+06
615248
926313
2.97594e+07
1.05265e+06
210790
1.2282
5400.78
3.83793e+07
1.82005e+07
8233.22
1.99937e+09
8.31065e+06
129961
15904.6
98818.7
1.2751e+07
1.12894e+06
225155
352760
9.30173e+08
1.15926e+08
82564.4
55802.9
8518.28
189284
3.33835e+06
6534.84
712.347
6.23368
100.339
1.92998e+07
25625.5
44989.7
125072
53570
2.55368e+06
1.49617e+07
947077
231568
144981
2.80771e+06
535.935
30543.8
248806
1.1325e+06
14471.7
6.10876e+07
5669.38
19921.2
1279.05
637685
3250.92
32.4679
18302.3
164.872
621.419
27719.2
1.46599e+06
12627.8
30172.5
826.676
148955
2269.81
2.00882e+07
7.88383
3137.74
7802.23
14204.4
739382
2417.44
1.44814e+06
2545.68
70.922
42756.2
499.103
218.659
1002.53
465.583
2203.91
3407.68
335.066
673.702
59264.3
1.47378
187.036
8181.5
1553.97
466487
30.482
30266.8
43247.5
835658
11.9932
45.7468
25.4596
254.37
311.428
1302.52
106.028
2828.02
67.4969
2108.42
2080.68
374.488
4.64839
12.9873
261210
68536.3
0.952313
139.495
2.63887
1.3081
471.2
37.9627
762.298
11.7093
1001.72
2657.94
6897.74
1.81901
396342
15.7093
223.582
5.11177e+06
72.9667
117.679
48805.6
21322.9
43.8114
554.42
24.1398
3534.83
106.449
30856
114.975
507.141
34.1612
22.9994
310.317
46.7328
1645.55
75.9503
4.64746
415.941
278.165
1201.95
6112.59
87.6479
9.96505
509.756
2.05977
20.9538
253.739
96.5277
30.8108
55.5198
193.731
11.014
188.887
214.167
0.768337
4.47136
15555.7
12.577
1.13853
83.911
213.742
203.343
17.2621
9.31054
6.28034
1190.5
3.84892
20.7062
0.699079
33.9306
26.4494
13240.2
19.9517
1.67842
8.83613
374.636
10593
815.034
27.263
37.0382
4.29608
14.3008
1832.69
65.5303
10.3598
105.488
70.8663
16.6044
61.6007
3.18671
1.90018
2.19491
11.2541
12.5572
2.98918
28.1107
13.6446
1.40961
101.276
118.769
18.399
0.452057
3.96923
31.972
0.852579
264.415
2.44194
6.58324
4.81616
3495.34
24.7659
859.221
4.86559
12.9651
89.4205
70.8911
5.92922
1.27653
5.92102
4.41612
107.972
17.5895
0.364866
1323.89
1.38838
7.91737
14.6182
88.1515
1845.28
22.9424
245.313
137.737
0.492643
0.777271
1.81232
13.5783
0.561773
4.65045
2.38767
2.04759
28.7105
577.079
729.66
4.55045
25.1199
3.45252
10.2483
3.16957
1.86956
168.054
1.79773
7.32175
5.03628
6.68543
553.438
3.43315
1.8296
1.012
3.73349
0.9272
1.72376
8.05984
1.97676
1.07459
80.7535
2.37181
4.44623
4.11764
8.14139
121.958
10.812
1.35157
4.91034
3.8663
0.529585
91.3611
100.387
1.66767
2.12703
100.36
1.31226
2.20006
9.64986
0.616219
2.50991
0.956532
306.288
0.447134
2.89425
5.14
15.438
1.21261
3.09919
183.582
1.59507
220.955
1.71027
1.41585
2.52754
1.05368
1.95646
1.18869
7.86209
0.651626
654.004
2.13884
2.79303
1.0567
2.57558
1.83769
0.988099
1.09267
122.214
0.705581
118.558
122.546
1.47108
1.075
6.76689
0.613782
2.94172
100.615
716.016
2.9168
1.86772
0.581721
0.66353
184.953
0.339724
0.688942
11.7663
10.517
0.700009
1.52846
0.753326
195.442
0.416938
1.24874
1.86286
0.76198
1.05063
0.367033
0.829764
4.29534
0.33772
0.85367
0.788732
15.4549
0.395406
9.51983
108.306
0.509657
176.347
1.41581
0.976608
0.56618
0.756104
1.1741
0.908288
0.991274
0.495176
2.10794
254.872
114.551
2.73965
102.654
102.382
106.863
4.98216
110.207
3.68471
7.33271
143.33
100.086
1.22612
0.804713
1
1
1
1
SCALARS cell_area_modifier float
LOOKUP_TABLE default
100
16.9375
100
0.449047
0.480923
0.575372
0.885621
0.357284
0.507966
100
0.659367
100
0.333128
1.04836
3.56579
0.77208
0.310246
100
0.543631
0.312032
0.322235
0.604236
0.611048
0.365722
0.426101
0.351492
0.28953
0.304153
0.325135
0.794721
100
100
0.48741
0.655381
0.287991
100
0.554759
100
100
100
100
100
100
100
100
100
100
100
100
100
100
100
100
100
100
100
100
100
100
100
100
3.68707
100
100
0.651442
100
0.309361
0.476693
100
0.441728
0.286469
0.478799
0.434643
100
100
100
0.581545
0.483066
100
100
100
100
0.688691
0.750693
0.373278
100
100
100
0.375867
100
100
100
100
4.83929
100
100
100
0.900332
100
20.0741
100
100
0.305008
100
100
100
0.824962
0.335189
100
100
100
100
100
100
100
1.186
0.445357
0.299117
100
0.293449
5.58763
0.505597
100
0.515209
0.298294
100
0.288759
0.311137
100
100
0.693095
100
100
0.370725
1.31553
0.458545
0.390771
100
0.397944
2.10895
100
100
1.28436
100
100
0.510358
0.306735
100
0.349227
1.43767
24.6364
100
0.360852
0.406907
0.336228
0.330085
0.62156
1.99265
0.450915
100
100
0.297475
100
1
0.374568
0.462457
0.371997
0.806548
31.8824
0.389368
100
0.892916
0.291085
100
100
100
0.403875
0.381153
0.319387
100
100
1.5848
0.290305
0.323196
0.324163
1.14831
0.328087
0.301614
5.06542
100
100
0.296661
0.300777
100
0.429477
100
100
100
100
0.566353
100
0.584682
0.294245
0.460493
5.31373
0.318449
100
0.49862
0.334155
0.385217
2.0687
0.315667
0.31475
0.438157
100
1.05859
0.56341
100
0.354944
0.364492
0.287228
0.470486
0.303302
100
0.348105
100
0.307605
0.755927
3.45223
0.36696
100
0.411541
0.291869
100
0.522662
0.295046
0.292657
100
0.320331
0.331093
100
0.363271
100
0.947552
100
0.607623
0.338327
271
3.24551
1.12448
100
100
0.850863
0.35611
8.08955
0.316589
1.25463
0.494075
0.299945
0.591058
0.587852
2.44144
100
0.39941
0.352635
0.30848
100
100
0.345884
0.378492
0.422777
1.24027
0.343691
0.329083
0.340452
11.5319
0.560496
0.597574
0.431185
1.73718
100
0.572334
0.393609
100
0.341525
100
12.9048
100
0.527751
0.530333
0.456613
1.8885
0.400888
100
0.332108
0.452799
0.382498
0.317516
1.34826
0.326113
0.706649
0.344784
0.578442
0.520154
0.538232
0.864434
100
0.312933
0.350356
1.65749
0.715984
1.40052
1.41885
0.67581
0.32128
2.82292
0.305869
0.359655
0.454698
0.51767
0.740437
2.97802
100
0.600887
0.41469
0.500924
100
100
0.358466
2.19433