# vtk DataFile Version 2.0
2D-vertex
ASCII
DATASET UNSTRUCTURED_GRID
POINTS 416 float
0.0908806 -2.23861 0
2.58735 -2.12453 0
3.01018 -1.20615 0
2.04067 -0.10676 0
-0.26769 0.137604 0
-1.04636 -1.29766 0
3.56678 -1.19369 0
4.17488 -0.362638 0
3.32748 1.1542 0
2.2279 0.876922 0
1.09807 2.13829 0
-0.609595 2.71303 0
-1.43098 1.48329 0
-1.63175 1.44258 0
-2.19538 -0.141779 0
-1.72394 -1.03732 0
4.75133 -0.544372 0
5.63082 0.311042 0
3.88154 1.86321 0
3.56103 1.79927 0
2.75412 2.76919 0
1.62788 2.73241 0
1.15947 6.19036 0
0.140412 6.18779 0
-0.673186 4.41257 0
-1.9987 3.64063 0
-1.99281 1.82215 0
-3.33202 1.57423 0
-3.85544 0.614108 0
-3.5784 -0.102009 0
6.7142 0.278913 0
7.38996 1.00801 0
7.25084 2.3186 0
5.10439 3.49442 0
5.62094 4.06873 0
3.30474 5.38924 0
2.64282 6.58957 0
1.64895 6.78861 0
0.705244 9.68027 0
-1.01208 9.68883 0
-0.699575 7.01063 0
-2.40542 6.18248 0
-3.42421 4.80075 0
-4.4733 4.87712 0
-5.20267 3.60464 0
-6.64816 3.34888 0
-6.95171 2.3441 0
-5.43341 0.915208 0
7.74119 2.97541 0
7.45225 3.97639 0
6.75955 4.37985 0
6.14329 6.41257 0
3.80429 7.58772 0
3.75085 8.3319 0
2.30284 9.79447 0
2.89868 10.5501 0
-2.05457 10.9179 0
-2.02147 10.289 0
-3.22747 9.14421 0
-2.95739 7.17328 0
-4.72023 7.61917 0
-6.08207 6.44148 0
-8.05578 5.14361 0
-7.92759 4.57055 0
8.43216 4.38629 0
8.43255 4.38876 0
7.11376 6.39701 0
7.56087 7.64506 0
6.41307 8.82026 0
6.65197 9.54722 0
6.01236 10.4429 0
5.90639 10.8143 0
-2.79224 13.1726 0
-2.9988 12.9865 0
-6.54748 10.9206 0
-5.87162 9.93881 0
-6.59007 8.81054 0
-6.46951 8.5304 0
-9.03096 5.75317 0
-8.87443 5.33486 0
9.96261 4.65939 0
10.3255 5.65473 0
9.61544 6.68613 0
10.7608 7.06396 0
10.5603 8.63494 0
10.8121 9.43233 0
10.0545 14.3797 0
10.5103 17.0074 0
-9.44265 17.2614 0
-9.4402 16.8782 0
-10.4954 10.6296 0
-10.1611 9.96496 0
-10.506 9.38464 0
-9.74868 8.18321 0
-10.5036 6.95291 0
-10.0571 5.9009 0
3.43157 -3.99401 0
4.66612 -3.4812 0
5.53366 -3.09472 0
7.9654 -1.55666 0
9.31444 -0.145138 0
10.7308 2.15345 0
10.8428 2.34065 0
11.6081 3.43497 0
12.4579 5.36341 0
12.6989 6.17298 0
12.9823 9.76955 0
12.6667 17.8244 0
-12.0796 18.3767 0
-12.8221 10.726 0
-12.7961 9.32186 0
-12.4825 6.66831 0
-11.6614 4.67949 0
-10.8242 3.53139 0
-10.2091 2.74964 0
-9.27359 1.33463 0
-7.35485 -0.854792 0
-5.2852 -2.30651 0
-3.19268 -3.35087 0
-0.202106 -4.24886 0
12.7916 11.7732 0
9.259 11.4369 0
-12.8125 13.8948 0
-10.3495 14.0922 0
-0.460659 4.1195 0
0.942783 4.19354 0
-1.97953 6.11026 0
-1.34513 4.42186 0
4.65357 5.55973 0
5.07325 6.48981 0
0.402365 11.0707 0
0.208391 10.1549 0
-1.24751 8.24077 0
-2.58487 7.97496 0
6.14267 6.41498 0
5.41282 8.32063 0
4.45301 8.80834 0
4.43523 9.99767 0
2.53266 11.3399 0
2.53078 11.3383 0
-2.79054 11.3273 0
-4.35389 10.001 0
-3.92882 9.22097 0
-4.81926 8.19346 0
1.18653 1.54732 0
-0.315006 0.573959 0
6.43736 2.56619 0
5.29567 1.00584 0
5.10232 3.49582 0
3.08672 4.30198 0
-9.35664 12.0954 0
-6.32592 11.4829 0
3.08424 4.30168 0
1.60399 5.00021 0
-9.69279 8.06989 0
-8.2668 7.37156 0
-1.09052 -1.31817 0
-1.57953 -3.96607 0
1.61416 27.7788 0
1.60647 29.0735 0
0.92958 -1.91493 0
1.08176 -0.493896 0
2.66698 8.73747 0
1.43886 7.65296 0
9.09206 10.9112 0
6.05492 10.5202 0
7.36901 22.7902 0
0.591485 12.6726 0
-3.00316 -0.383365 0
-3.77029 -3.09096 0
-4.65352 2.64458 0
-5.54299 1.53688 0
-5.93966 -1.90355 0
-4.82868 0.489591 0
0.44047 8.16938 0
-0.607647 7.70187 0
9.56429 6.47454 0
7.92378 5.71449 0
5.4268 -0.212527 0
7.05367 -2.23644 0
1.365 -4.36657 0
1.46082 -2.36306 0
-6.51005 1.68371 0
-8.11218 -0.132699 0
-5.73875 5.33139 0
-7.0456 4.19996 0
7.54789 2.45972 0
9.92182 0.728892 0
-12.6962 8.06222 0
-9.75033 8.1813 0
13.0508 8.23165 0
11.0103 8.12858 0
-3.03854 3.87377 0
-3.94777 2.60816 0
-9.7613 2.11619 0
-7.04695 3.66455 0
-3.85503 7.01694 0
-4.64221 5.2006 0
-7.17911 7.48454 0
-6.75782 6.57587 0
8.57718 7.82189 0
8.83582 8.41233 0
-0.772934 12.4678 0
-0.684922 11.7973 0
12.7934 11.7831 0
10.4136 12.8801 0
10.0487 15.5065 0
2.39088 11.6181 0
8.27854 9.53074 0
9.63982 10.4256 0
-7.78279 9.01154 0
-8.11295 9.90477 0
-2.18496 14.6521 0
1.22412 13.9321 0
-10.1111 14.7379 0
-4.39938 13.0477 0
9.63909 10.428 0
12.8481 10.9947 0
-10.4832 16.3682 0
-12.4757 17.2292 0
-12.7856 11.9505 0
-9.61425 11.7368 0
11.4329 20.606 0
9.53008 18.8348 0
8.87677 11.8952 0
6.83128 11.9126 0
-9.61386 11.7343 0
-7.75504 10.73 0
2.83238 14.6489 0
4.67069 13.2898 0
-4.84683 11.7523 0
-4.01516 10.8414 0
5.37618 13.1429 0
4.5368 11.5186 0
13.0145 13.6936 0
10.6235 13.5986 0
-2.87512 14.3093 0
-4.90574 14.0674 0
-2.2597 25.8849 0
0.339243 15.2201 0
-6.98055 12.2591 0
-4.88297 13.4746 0
-12.779 12.8038 0
-9.83479 12.9107 0
6.32255 17.4276 0
8.34948 15.9193 0
-0.783277 13.9549 0
-0.46765 12.7623 0
-8.82016 21.1048 0
-10.7607 21.9671 0
0.605388 26.9103 0
2.68226 15.6467 0
-2.94166 16.6887 0
-8.25099 21.5582 0
-10.6727 15.3495 0
-12.8217 15.2285 0
-6.75459 16.0091 0
-6.45888 14.6511 0
-6.81643 12.7788 0
-7.62614 14.0176 0
12.9824 15.9321 0
10.6191 16.1108 0
-7.4692 23.3442 0
-8.54127 25.0223 0
6.52573 12.9235 0
5.37784 13.141 0
9.79163 17.5054 0
8.26582 16.8076 0
4.40538 14.2942 0
6.8353 17.0695 0
-1.94051 15.7132 0
-0.163713 16.0162 0
8.03894 26.0096 0
6.75837 24.3014 0
0.667228 15.1799 0
1.78539 16.1388 0
4.48939 25.0769 0
4.41737 16.6633 0
13.0048 14.8177 0
10.33 14.8598 0
-8.43087 16.0266 0
-8.74003 15.0445 0
-9.68774 13.222 0
-7.70329 13.6332 0
-8.72173 20.3798 0
-6.18073 17.473 0
-0.0185202 27.0621 0
-0.409799 28.8789 0
2.19356 13.8747 0
2.99728 12.5475 0
-3.90566 16.0486 0
-4.04495 15.2068 0
-11.3386 20.5808 0
-9.36023 19.8606 0
0.329274 17.4058 0
0.00690704 17.1861 0
8.12124 14.1882 0
7.59411 14.9853 0
9.1252 12.5752 0
7.97742 13.7498 0
-8.39493 22.4651 0
-9.9971 23.375 0
-2.43374 16.5783 0
-1.40308 17.741 0
1.98338 17.2338 0
3.69638 17.5253 0
6.6987 14.9874 0
6.36882 15.4973 0
-6.7792 19.3732 0
-6.38955 19.618 0
-8.97838 17.598 0
-6.53974 16.9564 0
4.33389 16.3671 0
5.12946 15.3928 0
-6.16207 23.6005 0
-3.43695 18.221 0
6.79533 27.019 0
5.7547 25.3431 0
-3.58146 27.9195 0
-2.83591 25.9769 0
8.37895 18.9491 0
7.5793 17.3409 0
10.0503 23.2009 0
8.10641 22.2554 0
4.20857 19.5323 0
5.81604 20.2678 0
1.64192 19.3146 0
3.99684 19.61 0
1.13391 24.3542 0
-1.69218 24.5403 0
-2.37594 23.2004 0
-3.52815 20.2531 0
-6.35361 16.4188 0
-4.23727 15.1521 0
-6.75818 23.1421 0
-6.63953 21.0197 0
4.39088 23.3698 0
5.6311 21.691 0
-11.7795 19.2757 0
-9.16306 18.4734 0
-9.04392 18.593 0
-6.93704 18.5471 0
-0.16034 19.2787 0
0.327885 18.8323 0
2.88556 26.9733 0
1.54508 21.8449 0
3.77503 28.7668 0
3.38456 27.1743 0
-6.0321 26.8427 0
-5.28815 24.9493 0
-5.26437 17.4829 0
-4.75164 18.3574 0
8.12843 19.56 0
6.78305 19.09 0
1.98234 17.236 0
2.40683 18.6659 0
9.9608 18.1982 0
12.2833 18.9517 0
11.0394 21.2465 0
8.26728 19.4901 0
-4.27258 24.606 0
-3.06345 21.642 0
-1.79931 18.909 0
-2.84491 19.0298 0
2.8173 22.5666 0
3.27678 22.4136 0
-5.14181 19.2527 0
-4.45699 20.2292 0
4.41304 18.6326 0
6.2174 18.2351 0
-0.861935 22.0138 0
0.771999 22.6115 0
1.35795 25.5562 0
2.63507 25.8248 0
-1.52473 26.7387 0
-2.0585 28.4613 0
-0.566363 26.5082 0
-0.215478 25.042 0
-7.76956 25.6807 0
-6.1991 24.2801 0
-1.56792 19.2078 0
-3.05644 21.644 0
-4.60589 22.5713 0
-4.21407 22.7207 0
4.48727 25.0782 0
3.44525 24.8422 0
3.83549 21.1458 0
5.53525 21.7285 0
6.41434 24.2928 0
5.3573 22.9979 0
9.33907 24.4505 0
7.47267 23.4698 0
-3.67653 24.9367 0
-2.65122 23.1554 0
5.88535 27.6989 0
4.63147 26.3649 0
1.96527 20.5949 0
3.60283 20.7513 0
-4.82873 27.395 0
-3.90339 24.9798 0
1.13584 24.3557 0
2.60645 23.6556 0
0.168775 20.7082 0
1.40634 21.1409 0
-6.29077 21.3785 0
-5.06405 21.2707 0
7.94223 21.1012 0
6.01183 20.7135 0
-0.838578 21.4017 0
-1.914 20.7579 0
10.6326 22.0337 0
8.20442 20.8973 0
-0.839534 24.422 0
-0.192698 22.6053 0
-4.2288 23.1955 0
-2.8876 23.566 0
CELLS 209 1390
5 0 160 161 4 5
6 9 3 2 6 7 8
6 161 3 9 144 145 4
8 145 12 13 14 15 156 5 4
8 7 16 178 17 147 18 19 8
7 21 10 144 9 8 19 20
6 125 153 22 23 24 124
8 25 26 13 12 11 124 24 127
7 29 168 14 13 26 27 28
6 147 17 30 31 32 146
7 18 33 148 149 152 20 19
5 20 152 153 125 21
7 22 37 163 174 175 40 23
5 24 23 40 126 127
5 26 25 192 193 27
7 28 27 193 170 171 47 173
9 33 146 32 186 48 49 50 34 148
5 36 35 128 129 52
6 36 52 53 162 163 37
6 38 54 55 139 130 131
7 40 175 132 133 59 41 126
6 42 41 59 196 197 43
7 44 43 197 184 185 195 45
8 49 64 65 177 66 134 51 50
7 51 134 135 136 53 52 129
6 53 136 137 55 54 162
8 55 137 70 165 71 233 138 139
7 57 56 140 231 141 142 58
7 59 133 58 142 143 60 196
6 61 60 143 77 198 199
5 65 80 81 176 177
6 67 200 201 208 69 68
7 69 208 209 216 164 165 70
5 71 225 264 265 233
8 73 72 236 291 333 237 241 215
5 91 92 93 210 211
8 77 76 210 93 189 154 155 198
5 6 2 1 96 97
5 16 7 6 97 98
5 30 17 178 179 99
4 101 48 186 187
5 64 49 48 101 102
5 80 65 64 102 103
6 83 82 176 81 104 105
4 105 190 191 83
5 120 121 164 216 217
5 123 214 254 255 122
5 92 91 90 109 110
5 92 110 188 189 93
5 79 78 95 112 113
5 63 62 79 113 114
5 194 195 185 63 114
4 173 47 116 172
5 15 14 168 169 118
5 0 5 156 157 119
5 181 160 0 119 180
4 30 99 100 31
4 80 103 104 81
5 292 293 284 248 249
4 94 111 112 95
5 171 182 183 116 47
6 120 204 205 298 224 121
5 122 242 243 282 123
5 124 11 10 21 125
6 126 41 42 192 25 127
5 128 34 50 51 129
6 130 203 56 57 39 131
5 132 39 57 58 133
5 134 66 67 68 135
6 136 135 68 69 70 137
8 138 207 167 247 202 203 130 139
5 140 73 215 230 231
6 142 141 75 76 77 143
5 144 10 11 12 145
4 146 33 18 147
5 148 34 128 35 149
7 150 221 226 227 74 151 240
7 152 149 35 36 37 22 153
5 154 94 95 78 155
4 156 15 118 157
4 357 222 223 356
6 160 181 1 2 3 161
5 162 54 38 174 163
6 164 121 224 225 71 165
7 166 391 273 388 389 387 337
4 168 29 117 169
6 170 44 45 46 182 171
5 172 117 29 28 173
6 174 38 131 39 132 175
6 176 82 200 67 66 177
4 178 16 98 179
4 180 96 1 181
4 182 46 115 183
6 184 61 199 62 63 185
5 186 32 31 100 187
5 188 111 94 154 189
5 190 106 85 84 191
6 192 42 43 44 170 193
5 194 115 46 45 195
5 196 60 61 184 197
6 198 155 78 79 62 199
6 200 82 83 191 84 201
6 202 72 73 140 56 203
4 204 234 235 205
6 206 261 87 266 267 245
5 208 201 84 85 209
6 210 76 75 74 227 211
6 247 167 213 274 239 246
6 214 123 282 283 259 281
5 216 209 85 106 217
5 218 89 88 108 219
5 220 109 90 226 221
5 222 358 359 320 223
5 224 298 299 264 225
5 226 90 91 211 227
5 228 288 289 229 268
6 230 151 74 75 141 231
7 232 229 289 207 138 233 265
5 234 278 279 86 235
7 236 212 270 302 252 290 291
6 253 248 284 308 309 335
6 240 151 230 215 241 258
5 242 220 221 150 243
6 244 277 312 313 307 269
6 246 212 236 72 202 247
5 248 253 300 301 249
8 275 304 354 294 295 271 239 274
6 252 302 303 362 363 315
4 254 218 219 255
5 256 280 281 259 257
6 258 241 237 257 259 283
4 260 107 87 261
5 319 238 374 375 318
7 264 299 296 297 306 232 265
6 266 356 223 320 321 267
6 268 229 232 306 307 313
5 270 212 246 239 271
5 272 316 317 388 273
6 274 213 288 228 251 275
7 276 384 385 401 364 365 336
5 278 260 261 206 279
6 280 89 218 254 214 281
6 282 243 150 240 258 283
5 284 293 340 341 308
5 286 250 158 159 287
5 288 213 167 207 289
7 333 291 290 350 285 311 332
5 292 338 339 340 293
5 328 377 412 413 371
6 296 86 279 206 245 297
6 298 205 235 86 296 299
4 300 262 263 301
5 302 270 271 295 303
6 304 275 251 312 277 305
7 306 297 245 267 321 269 307
7 308 341 285 350 351 366 309
7 310 88 89 280 256 332 311
5 312 251 228 268 313
5 314 334 404 405 382
6 316 394 395 384 276 317
5 318 398 399 392 319
8 320 359 352 353 369 244 269 321
5 322 390 391 166 323
5 324 368 369 353 325
5 326 343 294 354 355
7 286 376 377 328 400 372 250
7 330 329 238 319 392 415 393
5 332 256 257 237 333
6 334 262 300 253 335 404
5 336 365 386 387 389
5 338 108 88 310 339
6 340 339 310 311 285 341
7 380 362 303 295 294 343 342
5 344 158 250 372 373
5 346 159 158 344 347
4 348 378 379 349
5 350 290 252 315 351
6 352 411 406 407 325 353
7 354 304 305 368 324 327 355
5 356 266 87 107 357
5 358 410 411 352 359
7 360 349 379 314 382 383 414
7 362 380 409 381 361 331 363
7 364 345 403 396 397 386 365
6 366 351 315 363 331 367
5 368 305 277 244 369
7 345 371 413 370 408 402 403
5 372 400 401 385 373
5 374 376 286 287 375
6 376 374 238 329 412 377
6 378 263 262 334 314 379
5 380 342 402 408 409
6 382 405 367 331 361 383
6 384 395 347 344 373 385
8 386 397 327 324 325 407 337 387
5 388 317 276 336 389
4 390 272 273 391
5 392 399 360 414 415
4 394 346 347 395
5 396 326 355 327 397
5 398 348 349 360 399
6 400 328 371 345 364 401
6 402 342 343 326 396 403
6 404 335 309 366 367 405
5 406 323 166 337 407
6 408 370 330 393 381 409
5 410 322 323 406 411
5 412 329 330 370 413
6 414 383 361 381 393 415
CELL_TYPES 209
7
7
7
7
7
7
7
7
7
7
7
7
7
7
7
7
7
7
7
7
7
7
7
7
7
7
7
7
7
7
7
7
7
7
7
7
7
7
7
7
7
7
7
7
7
7
7
7
7
7
7
7
7
7
7
7
7
7
7
7
7
7
7
7
7
7
7
7
7
7
7
7
7
7
7
7
7
7
7
7
7
7
7
7
7
7
7
7
7
7
7
7
7
7
7
7
7
7
7
7
7
7
7
7
7
7
7
7
7
7
7
7
7
7
7
7
7
7
7
7
7
7
7
7
7
7
7
7
7
7
7
7
7
7
7
7
7
7
7
7
7
7
7
7
7
7
7
7
7
7
7
7
7
7
7
7
7
7
7
7
7
7
7
7
7
7
7
7
7
7
7
7
7
7
7
7
7
7
7
7
7
7
7
7
7
7
7
7
7
7
7
7
7
7
7
7
7
7
7
7
7
7
7
7
7
7
7
7
7
CELL_DATA 209
SCALARS cell_division_count float
LOOKUP_TABLE default
1
0
1
0
0
0
1
0
0
1
1
1
1
1
1
1
0
1
1
1
1
1
1
0
1
1
1
1
1
1
1
1
2
4
3
1
1
0
0
1
1
0
0
0
1
2
3
0
1
0
0
1
1
1
1
1
0
0
3
0
1
2
3
1
1
1
1
1
1
1
2
2
1
1
1
1
2
1
1
1
3
1
1
2
8
1
1
1
1
1
1
1
1
1
1
1
1
1
1
1
1
1
2
3
5
2
1
3
5
2
2
2
5
3
2
4
2
3
5
5
6
3
3
6
3
4
6
9
3
5
4
4
6
5
6
6
5
4
5
10
5
5
5
7
4
4
6
4
10
5
3
4
6
6
6
7
6
6
10
6
7
7
5
7
8
8
10
6
8
8
4
7
8
9
5
7
7
8
8
3
6
10
10
10
9
7
10
10
6
8
7
11
10
10
8
8
5
11
6
10
7
10
10
10
8
11
6
10
11
SCALARS cell_time float
LOOKUP_TABLE default
1151
2.22229e+13
1171
4.48239e+13
2.67348e+11
1.25633e+10
1181
2.68224e+09
9.19769e+11
1171
1171
1161
1131
1181
1101
1141
1.22716e+06
1181
1151
1181
1181
1081
1121
24963.4
1181
1181
1181
1181
1181
1071
1131
1071
1031
771
921
1021
1161
1.00108e+18
2.94533e+15
1131
1121
106263
2525.76
1237.34
1111
1011
811
1228.01
1121
3879.01
1496.18
1101
1141
1151
1161
1131
1.12104e+13
22346.3
601
3217.96
1131
1051
871
1181
1181
1181
1181
1181
1181
1181
1061
941
1181
1171
1171
1171
1001
1161
1161
1161
301
1151
1151
1011
131
1151
1141
1141
1131
1131
1131
1131
1131
1121
1121
1121
1111
1101
1101
1081
1071
1071
1061
931
751
1031
1021
871
651
1011
1011
1011
301
591
1001
621
941
931
661
621
511
891
871
501
871
591
601
291
811
661
791
791
211
601
491
521
721
501
691
141
661
661
651
351
641
621
391
371
21
601
591
591
591
581
521
321
511
501
51
111
101
311
131
241
311
201
131
391
381
141
371
351
351
221
331
181
321
41
311
301
31
161
171
111
251
241
81
101
211
201
181
41
161
141
141
131
131
1
111
111
101
101
81
51
41
41
31
21
1
SCALARS cell_area float
LOOKUP_TABLE default
3.24381
3.30168
3.29431
3.35839
3.35274
3.34464
3.3269
3.37807
3.3505
3.28224
3.33776
3.2864
3.3824
3.31921
3.30789
3.33194
3.4015
3.28803
3.34222
3.3878
3.38821
3.34115
3.34159
3.37352
3.35893
3.37237
3.42746
3.39724
3.38895
3.33017
3.25086
3.30101
3.34356
3.32041
3.42906
3.25394
3.34993
3.25527
3.26399
3.25147
3.24137
3.28282
3.26521
3.28418
3.22502
3.29497
3.26803
3.26907
3.26464
3.25363
3.27302
3.27812
3.22003
3.26033
3.24751
3.24458
3.21237
3.22097
3.27662
3.20127
3.24994
3.30839
3.28076
3.28221
3.33893
3.29001
3.38635
3.34678
3.28467
3.35765
3.4334
3.34222
3.35432
3.28813
3.2474
3.27754
3.33787
3.35017
3.23631
3.22513
3.22857
3.26048
3.33042
3.32347
3.30434
3.22593
3.29919
3.25568
3.36643
3.29037
3.22748
3.20604
3.21982
3.30648
3.2555
3.25146
3.26383
3.32618
3.26757
3.30175
3.29325
3.26882
3.38373
3.24368
3.29505
3.24943
3.32758
3.36491
3.28855
3.28304
3.27208
3.2774
3.28008
3.28515
3.25269
3.29743
3.35003
3.3878
3.26907
3.39842
3.27795
3.34443
3.28443
3.32607
3.38142
3.26925
3.40472
3.34288
3.2253
3.26875
3.3223
3.21906
3.29366
3.35831
3.31283
3.33337
3.33124
3.27503
3.342
3.3055
3.26342
3.28081
3.31264
3.25827
3.27684
3.33078
3.36672
3.27981
3.24304
3.31136
3.29851
3.22987
3.32486
3.32985
3.36807
3.35109
3.33137
3.28549
3.25039
3.30343
3.29355
3.38374
3.27315
3.29876
3.31115
3.29173
3.29309
3.30744
3.26648
3.28201
3.2847
3.31021
3.36491
3.22574
3.2591
3.24055
3.3188
3.3109
3.34958
3.25291
3.28808
3.28524
3.3583
3.34382
3.3309
3.29332
3.33064
3.23455
3.29158
3.28101
3.29689
3.2972
3.30714
3.25903
3.36937
3.25621
3.23497
3.33462
3.228
3.30182
3.28418
3.28681
3.32044
3.30065
3.26946
3.30102
3.28234
3.24712
131
SCALARS cell_perimeter float
LOOKUP_TABLE default
6.92697
6.92515
6.99219
7.15145
7.09444
6.84067
7.05275
7.49295
6.91232
6.95107
7.37066
6.98808
6.82643
7.16922
7.00787
6.77614
7.15334
6.96012
6.97636
7.20221
6.91247
7.15842
7.17647
7.44339
7.46519
6.90835
8.11379
6.95225
6.83148
7.02193
6.95993
6.96033
8.23918
7.02779
7.00652
7.22993
7.7209
7.49381
7.78954
7.60118
8.2275
8.5844
8.10432
7.67253
7.35817
8.86914
7.47562
7.44306
7.92558
7.57665
7.9977
8.31191
7.75181
8.04314
7.65505
7.20281
7.41158
7.3701
7.28556
7.31014
7.69026
8.82385
7.94613
7.03132
7.04056
7.17497
6.98208
7.0019
7.09843
6.88879
8.01657
6.9955
7.09383
7.10715
7.25015
7.18941
7.78084
7.17597
6.93731
7.85244
7.67
6.78665
7.01603
8.02142
7.24059
7.9485
6.81681
7.94405
6.97876
6.98106
7.76252
7.30844
7.61966
7.05633
7.8926
7.86343
7.29236
6.89363
8.13623
7.10045
7.10507
6.89915
7.23503
7.68521
6.92727
6.9901
6.81335
7.09433
7.12008
8.22638
7.79182
8.14819
8.34222
7.1383
7.2186
7.03736
6.95834
7.8153
7.71213
6.85998
7.23016
7.13413
8.36474
7.12748
7.27247
7.2137
7.09453
6.97221
7.38956
6.93892
7.25898
7.49771
7.21072
7.42322
6.98174
7.19592
7.08989
7.29372
6.84629
7.29561
7.69605
6.7827
7.47433
7.26567
7.15209
7.12751
7.60983
7.6949
7.06726
7.10691
7.08526
7.30883
7.04966
7.10684
6.8974
6.82175
7.6174
6.99706
7.05262
7.52963
7.58859
7.18577
7.30624
7.08693
6.98243
7.21586
7.21883
7.36287
6.95794
6.96785
8.01568
7.63528
7.01404
6.86606
7.1676
7.35919
7.07862
7.0764
7.54801
7.52583
8.34371
7.05426
7.33749
6.93434
6.82378
7.15752
6.81073
6.88133
7.12743
6.81988
7.28178
6.94088
6.97461
6.83673
7.09429
6.95028
7.36954
7.84708
7.3222
7.02503
7.54217
7.0717
6.94112
6.854
7.15108
7.07906
7.64495
7.11021
196
SCALARS cell_frequency_modifier float
LOOKUP_TABLE default
1.29185e+17
6.73948e+13
2.06826e+13
2.28055e+13
4.65182e+12
2.50427e+11
3.12441e+08
1.45819e+10
4.05127e+12
7.34329e+12
1.46553e+10
1.18216e+10
3.43787e+06
1.01577e+08
5.85557e+10
7.16312e+11
6.87371e+09
6.46643e+07
1.76823e+06
13471.1
2.74491e+06
4.70262e+07
1.10201e+09
1.20941e+08
1.88749e+06
73267
7251.19
17181.8
604371
2.7328e+06
2.91716e+10
589740
22893.2
2516.15
132.705
2.53416e+07
585138
3.84709e+18
6.1043e+17
3.63281e+16
3.78968e+13
7.45485e+10
7.15251e+11
1.09772e+08
6.28005e+08
15593.3
20661.9
8.27623e+06
7.49343e+07
5.78048e+10
2.88701e+11
9.0042e+10
1.47745e+16
4.22936e+17
7.02627e+18
10000
8.06467e+15
9.89173e+10
37.3518
7.76887e+09
1.26113e+15
2884.72
3356.57
8.73144e+10
3.80211e+08
3.58466e+08
9794.3
141512
9.3213e+06
86504.9
1622.57
2041.83
121718
1.24849e+12
2.65088e+13
1.14833e+10
3809.02
8.45669e+07
1.84266e+09
4.0485e+18
529.185
2.25154e+17
273195
7293.4
0.83844
2.97033e+17
1.10255e+11
3.25816e+16
151645
2.29858e+07
3.4136e+17
10000
2.3846e+14
2.00752e+08
2.58584e+14
4.49212e+08
5.26598e+07
4.71527e+09
1.23888e+13
3.45108e+07
5.41314e+07
3.13147e+08
1318.64
137505
34.0812
2.54488e+07
50666.4
153.377
469.201
135720
1977.51
104624
15.7878
3712.68
3.43606e+06
499.979
9331.86
913.983
31358.9
24.0903
16.531
1049.65
6292.45
20.6026
225.413
147.294
10.9596
5.0122
5352.38
12529.4
300.945
2974.41
1.27131
172.021
6.82213
119.285
61.1368
26.4176
67.7919
0.733307
9372.46
255.319
1015.67
470.837
18.9751
710.7
13.2356
22.6989
105.611
90.7651
594.997
108.874
16.935
16.6133
17.1907
2.7606
13.6174
173.952
136.007
0.783729
1.13419
2.65588
79.1451
4.42823
5.58606
1.1794
1.10917
74.6649
144.957
4.22591
17.0538
7.33785
2.95338
117.541
164.872
101.879
10.3295
1.82624
3.37762
1192.87
3.3583
1.71968
1.0759
0.713767
2.40406
14.4926
0.790939
100.001
1.69739
3.38251
0.932875
2.61096
1.21979
107.776
0.806135
102.003
100.402
0.500845
144.116
2.73096
2.2165
1.66092
1.87974
2.15991
165.405
1.16467
3.90945
111.944
1
SCALARS cell_area_modifier float
LOOKUP_TABLE default
100
0.761905
0.976526
0.350759
0.366197
0.393939
0.516129
0.323484
0.37276
2.66667
0.444444
1.50725
0.31853
0.573003
0.654088
0.459161
0.295875
1.40541
0.413519
0.309064
0.304539
0.430642
0.42623
0.326019
0.347826
0.328594
0.291725
0.300144
0.302326
0.497608
100
0.790875
0.405458
0.565217
0.289694
100
0.383057
100
100
100
100
2.36364
100
2.01942
100
0.954128
100
100
100
100
100
5.47368
100
100
100
100
100
100
16
100
100
0.643963
3.92453
2.84932
0.435146
1.2381
0.311377
0.390244
1.84071
0.359862
0.28769
0.417671
0.363002
1.31646
100
7.42857
0.439746
0.37613
100
100
100
100
0.491726
0.543081
0.709898
100
0.822134
100
0.339315
1.20231
100
100
100
0.686469
100
100
100
0.522613
100
0.748201
1.07772
100
0.316109
100
0.932735
100
0.509804
0.344942
1.27607
2.23656
100
9.04348
4.33333
1.69106
100
0.87395
0.379562
0.306785
100
0.297994
6.30303
0.397706
1.92593
0.529262
0.320988
100
0.293785
0.409449
100
100
0.550265
100
1
0.353741
0.589235
0.454148
0.469526
26
0.421907
0.697987
100
3.58621
0.597701
100
11.5556
0.48037
0.33657
4.83721
100
0.606414
0.855967
100
0.536082
0.503632
0.333868
0.369449
0.464286
1.56391
100
0.722222
1.02463
0.313725
69.3333
0.83871
0.615385
1.13661
1.10638
0.664537
100
3.05882
1.76271
0.634146
0.342105
100
100
100
0.581006
0.624625
0.386617
100
1.35948
1.625
0.356775
0.401544
0.474886
1.05051
0.485981
100
1.16854
3.30159
0.912281
0.892704
0.675325
100
0.33121
100
100
0.449244
100
0.734982
2.12245
1.45455
0.557641
0.806202
100
0.776119
2.50602
100
1
SCALARS cell_Gaussian_modifier float
LOOKUP_TABLE default
1.29185e+15
8.84557e+13
2.11798e+13
6.50177e+13
1.27031e+13
6.35699e+11
6.05355e+08
4.50779e+10
1.08683e+13
2.75374e+12
3.29743e+10
7.84321e+09
1.07929e+07
1.77271e+08
8.95227e+10
1.56004e+12
2.32318e+10
4.60111e+07
4.27606e+06
43586.7
9.01333e+06
1.092e+08
2.58548e+09
3.70962e+08
5.42652e+06
222971
24856.2
57245.2
1.99907e+06
5.49187e+06
2.91716e+08
745680
56462.6
4451.66
458.087
253416
1.52755e+06
3.84709e+16
6.1043e+15
3.63281e+14
3.78968e+11
3.15397e+10
7.15251e+09
5.4358e+07
6.28005e+06
16342.9
206.619
82762.3
749343
5.78048e+08
2.88701e+09
1.645e+10
1.47745e+14
4.22936e+15
7.02627e+16
100
8.06467e+13
9.89173e+08
2.33449
7.76887e+07
1.26113e+13
4479.64
855.28
3.0644e+10
8.73755e+08
2.89531e+08
31454.8
362625
5.06398e+06
240384
5640
4888.62
335310
9.48375e+11
2.65088e+11
1.54583e+09
8661.86
2.24834e+08
1.84266e+07
4.0485e+16
5.29185
2.25154e+15
555584
13429.7
1.18107
2.97033e+15
1.34109e+11
3.25816e+14
446916
1.9118e+07
3.4136e+15
100
2.3846e+12
2.92441e+08
2.58584e+12
4.49212e+06
526598
9.02249e+09
1.23888e+11
4.61251e+07
5.02277e+07
3.13147e+06
4171.48
1375.05
36.539
254488
99384.1
444.646
367.691
60682.7
19.7751
11569
3.64334
2195.48
34360.6
572.091
24585.8
2979.23
313.589
80.8415
2.62271
2639.26
3267.23
38.927
702.247
1.47294
37.3047
12.2413
53.5238
125.294
546.91
29.7441
1.27131
486.291
11.5779
262.657
130.21
1.01606
160.68
1.0506
93.7246
71.1947
1699.3
4.70837
1.64208
1479.49
39.3249
4.69257
1.05611
149.675
695.116
1.08874
31.5903
32.9869
51.4895
7.47221
29.3297
111.229
1.36007
1.08516
1.10692
8.46561
1.14152
5.27981
9.07735
1.03765
1.00252
112.356
1.44957
1.38155
9.67473
11.5712
8.63296
1.17541
1.64872
1.01879
17.7787
2.92375
8.73635
11.9287
2.47029
1.05826
3.01563
1.77755
5.06239
13.7959
1.62751
1.00001
1.45258
1.02451
1.02257
2.92478
1.80623
1.07776
2.43391
1.02003
1.00402
1.11486
1.44116
3.71567
1.04431
1.14188
3.37089
2.67912
1.65405
1.50063
1.56002
1.11944
1
