# vtk DataFile Version 3.0
2D-vertex
ASCII
DATASET UNSTRUCTURED_GRID

POINTS 746 float
0.236516 -3.43238 0
2.68525 -3.28867 0
3.09917 -2.34863 0
2.10016 -1.25296 0
-0.160069 -1.04955 0
-0.915017 -2.52327 0
3.62575 -2.32864 0
4.22169 -1.4902 0
3.32902 0.0518888 0
2.27535 -0.234467 0
1.13419 1.05528 0
-0.542088 1.57351 0
-1.33722 0.316413 0
-1.4935 0.281607 0
-2.05029 -1.37842 0
-1.56072 -2.27647 0
4.78928 -1.66319 0
5.62209 -0.806372 0
3.82852 0.783128 0
3.55654 0.723627 0
2.70478 1.70705 0
1.63693 1.64796 0
1.07975 5.27876 0
0.209969 5.27455 0
-0.649049 3.42401 0
-1.88434 2.54407 0
-1.84218 0.637887 0
-3.13965 0.375001 0
-3.6755 -0.649906 0
-3.38915 -1.36781 0
6.69005 -0.824067 0
7.32919 -0.120263 0
7.18948 1.19789 0
5.00331 2.4332 0
5.48697 2.99972 0
3.1767 4.39527 0
2.4518 5.69286 0
1.55817 5.87444 0
0.690474 9.03474 0
-0.917142 9.11082 0
-0.647288 6.1062 0
-2.18156 5.20054 0
-3.25736 3.68172 0
-4.21697 3.73325 0
-4.97973 2.33603 0
-6.39535 2.05195 0
-6.70191 0.988672 0
-5.21554 -0.388464 0
7.62599 1.80832 0
7.3108 2.86231 0
6.56972 3.30546 0
5.8943 5.384 0
3.57465 6.63867 0
3.52598 7.49338 0
2.10895 9.12421 0
2.66253 9.81926 0
-1.88411 10.4733 0
-1.80919 9.60693 0
-3.05726 8.31208 0
-2.76292 6.17686 0
-4.40368 6.51695 0
-5.80167 5.22288 0
-7.74493 3.76034 0
-7.60927 3.22729 0
8.23997 3.24634 0
8.23998 3.24884 0
6.8131 5.336 0
7.27983 6.52244 0
6.05592 7.82848 0
6.28578 8.49906 0
5.54898 9.52478 0
5.31788 9.9983 0
-2.61494 12.7573 0
-2.85335 12.4687 0
-6.10724 9.67533 0
-5.4379 8.8705 0
-6.16854 7.52194 0
-6.08521 7.35268 0
-8.72606 4.27598 0
-8.58081 3.92536 0
9.78394 3.51104 0
10.1268 4.45264 0
9.34965 5.45867 0
10.534 5.85057 0
10.2763 7.37931 0
10.4875 8.08534 0
9.84921 12.7656 0
10.915 14.8594 0
-9.75319 14.7774 0
-9.74549 14.7507 0
-10.0968 8.87147 0
-9.80511 8.3483 0
-10.1491 7.71912 0
-9.41489 6.61916 0
-10.2378 5.37174 0
-9.78656 4.39184 0
3.57272 -5.1632 0
4.78308 -4.63401 0
5.62203 -4.24284 0
7.99378 -2.6867 0
9.30709 -1.27234 0
10.6751 1.03956 0
10.7674 1.20148 0
11.4845 2.256 0
12.3073 4.16722 0
12.5319 4.94343 0
12.7902 8.45533 0
13.5042 15.2071 0
-13.2914 15.2407 0
-12.7039 8.83699 0
-12.6223 7.56435 0
-12.2604 5.02843 0
-11.3975 3.0864 0
-10.5457 1.98569 0
-9.94944 1.26528 0
-9.06079 -0.0544977 0
-7.15339 -2.20251 0
-5.09777 -3.61814 0
-3.01298 -4.63081 0
-0.0239148 -5.48002 0
12.6866 9.97776 0
8.64726 10.2381 0
-12.9784 11.3078 0
-10.1002 12.1272 0
-0.40453 3.08381 0
0.895547 3.16212 0
-1.91416 5.16314 0
-1.19118 3.42439 0
4.44306 4.57166 0
4.86467 5.48608 0
0.403551 10.6096 0
0.169319 9.54183 0
-1.14929 7.45225 0
-2.35221 7.17308 0
5.89339 5.38632 0
5.10584 7.36926 0
4.13815 7.89068 0
4.16904 9.22025 0
2.18458 10.8087 0
2.18251 10.8073 0
-2.42357 10.7323 0
-3.98978 9.03814 0
-3.54999 8.33526 0
-4.52133 7.10052 0
1.24347 0.40927 0
-0.219867 -0.564543 0
6.36904 1.4598 0
5.25118 -0.0581342 0
5.00133 2.43472 0
2.99259 3.28179 0
-8.96995 10.4879 0
-5.91822 10.3534 0
2.99009 3.28188 0
1.56681 3.98367 0
-9.42785 6.56281 0
-8.0191 5.94454 0
-0.945072 -2.53815 0
-1.39335 -5.22298 0
13.3963 33.6631 0
15.0068 34.5232 0
1.05063 -3.10094 0
1.18015 -1.64462 0
2.51366 7.89775 0
1.31951 6.88606 0
8.45565 9.75589 0
5.54938 9.52726 0
9.53996 20.533 0
0.0990162 12.4851 0
-2.83752 -1.62954 0
-3.5777 -4.38491 0
-4.42136 1.41058 0
-5.33101 0.23564 0
-5.73503 -3.23413 0
-4.63479 -0.787817 0
0.386962 7.37924 0
-0.544718 6.95671 0
9.31646 5.31974 0
7.70637 4.56164 0
5.42833 -1.33596 0
7.12069 -3.36129 0
1.52579 -5.56964 0
1.58881 -3.54038 0
-6.27839 0.367063 0
-7.89748 -1.50387 0
-5.41433 4.12281 0
-6.7529 2.89279 0
7.45496 1.32362 0
9.89317 -0.401785 0
-12.5019 6.4148 0
-9.43793 6.58186 0
12.8642 6.97685 0
10.7601 6.85069 0
-2.84493 2.73892 0
-3.77417 1.39196 0
-9.53759 0.699526 0
-6.74624 2.32193 0
-3.59861 5.99487 0
-4.37888 4.02981 0
-6.84495 6.12178 0
-6.43228 5.32015 0
8.2665 6.66814 0
8.48712 7.14985 0
-0.824586 12.3443 0
-0.640797 11.3145 0
12.6913 9.98668 0
10.0934 11.3455 0
10.0413 13.6667 0
1.92281 11.3138 0
7.91842 8.41656 0
9.1748 9.11135 0
-7.32082 7.63197 0
-7.65671 8.3905 0
-2.27816 14.6085 0
0.833563 13.7543 0
-10.0306 12.6309 0
-4.11463 12.3401 0
9.17356 9.11355 0
12.6929 9.49672 0
-10.8186 13.8082 0
-13.3484 14.2379 0
-12.7543 9.81572 0
-9.22665 10.0632 0
13.0801 17.9728 0
10.4105 16.4255 0
8.33511 10.6829 0
6.21301 10.9053 0
-9.22669 10.0607 0
-7.33735 9.34772 0
2.36662 14.2575 0
4.10741 12.6299 0
-4.43566 10.8008 0
-3.65413 10.1074 0
4.84982 12.3691 0
3.90628 10.8673 0
13.0875 11.6698 0
10.3187 11.8898 0
-2.90497 14.2047 0
-4.5893 13.296 0
-12.6437 27.9583 0
0.0752985 15.2972 0
-6.52169 10.9245 0
-4.4727 12.59 0
-12.8316 10.5268 0
-9.43516 11.1055 0
6.18451 16.3412 0
8.24934 14.5283 0
-1.07693 14.0828 0
-0.636603 12.5518 0
-10.5678 18.0838 0
-13.5928 17.3299 0
10.8833 38.4311 0
2.31774 15.2921 0
-3.06976 16.725 0
-10.4809 18.4709 0
-10.7755 13.1179 0
-13.2064 12.3465 0
-6.64275 14.68 0
-6.10056 13.5471 0
-6.39594 11.6254 0
-7.24154 12.5848 0
13.3791 13.3796 0
10.8412 14.2013 0
-11.281 19.7454 0
-14.059 20.0413 0
6.01808 11.9869 0
4.85101 12.3669 0
10.3001 15.543 0
8.32506 15.1461 0
3.95455 13.7184 0
6.73169 15.795 0
-2.07759 15.9304 0
-0.462811 16.2422 0
14.4379 21.2378 0
11.8462 21.9998 0
0.300837 15.2509 0
1.31244 15.98 0
12.4487 23.8792 0
4.03998 15.8449 0
13.2149 12.5123 0
10.1603 13.1357 0
-8.49219 14.2148 0
-8.53593 13.3516 0
-9.33513 11.4276 0
-7.24977 12.2232 0
-10.1363 17.6312 0
-6.28868 16.3681 0
8.30904 41.4346 0
8.80178 43.0978 0
1.73671 13.6247 0
2.49142 12.1017 0
-3.94922 15.8136 0
-3.89548 14.7382 0
-13.4212 16.4618 0
-10.3554 17.0061 0
-0.0687241 17.6753 0
-0.253751 17.5607 0
7.72894 12.8939 0
7.33263 13.7818 0
8.59368 11.2042 0
7.57693 12.5961 0
-11.2821 19.0868 0
-13.8164 18.2841 0
-2.62192 16.7044 0
-1.65548 18.0584 0
1.61483 17.0212 0
3.39799 16.985 0
6.30247 13.9572 0
6.06573 14.4872 0
-7.58678 17.7806 0
-7.38289 18.1366 0
-9.2295 15.464 0
-6.50015 15.6336 0
4.01284 15.785 0
4.71715 14.5905 0
-10.6787 21.636 0
-3.8712 18.0498 0
14.8821 22.4771 0
12.716 23.0813 0
-15.405 27.718 0
-13.2817 27.3466 0
8.67421 16.9734 0
7.70909 15.9067 0
13.1283 18.6436 0
9.70685 19.7181 0
4.25465 18.2325 0
6.14275 18.9418 0
1.43164 19.4429 0
3.63476 18.6763 0
-0.601649 25.057 0
-3.34318 23.9032 0
-3.09859 22.2619 0
-4.54326 19.8878 0
-6.27663 15.314 0
-4.08767 14.6356 0
-9.90579 20.4252 0
-8.38279 19.2237 0
8.07718 23.5681 0
7.52851 20.7353 0
-13.3032 15.6314 0
-9.60554 16.0411 0
-9.58386 16.0937 0
-7.36909 17.0307 0
-0.0217863 19.6258 0
0.188918 19.3597 0
13.4528 32.3623 0
2.43952 22.6352 0
16.2428 29.4014 0
14.3485 29.1752 0
-14.8474 22.4532 0
-12.2569 22.7105 0
-5.44283 16.6899 0
-5.23528 17.772 0
8.24476 17.7141 0
7.04549 17.6613 0
1.46257 17.2698 0
2.06685 18.3389 0
10.5688 16.037 0
13.4351 16.1901 0
13.0312 18.2064 0
8.68751 17.2821 0
-11.7374 23.5857 0
-4.51951 20.0674 0
-2.06439 18.9681 0
-3.5339 18.8879 0
4.0392 23.1067 0
4.65694 22.4899 0
-5.88812 18.4005 0
-5.71699 19.3962 0
4.25842 17.8088 0
6.21888 16.844 0
-1.749 22.0227 0
-0.0443392 23.2765 0
2.18847 28.2496 0
11.4609 31.6166 0
-7.63089 40.011 0
-8.9312 41.517 0
-2.91278 41.6219 0
-2.28211 24.6408 0
-14.2996 20.6839 0
-12.0268 22.0816 0
-1.69883 19.5465 0
-3.52797 20.6348 0
-7.5199 21.1834 0
-5.94657 21.3089 0
13.1273 27.5751 0
11.2727 30.2725 0
5.30228 20.9333 0
6.99424 21.3592 0
11.8103 22.0945 0
8.92886 22.5567 0
13.6179 19.6372 0
11.5195 21.4686 0
-12.9712 26.2581 0
-3.67818 21.7708 0
16.0525 27.2563 0
14.1352 27.9667 0
2.5935 20.5397 0
3.79249 19.7629 0
-15.286 24.3185 0
-13.1306 25.0635 0
-1.37732 26.6791 0
4.35439 24.2605 0
0.466891 20.8888 0
2.1862 21.3565 0
-8.37396 19.2847 0
-7.05377 20.1037 0
8.76311 18.8025 0
7.20628 19.5812 0
-1.33905 21.2567 0
-2.03139 20.2368 0
13.0293 18.2164 0
8.80977 18.665 0
-2.36105 24.3636 0
-1.19839 23.0734 0
-5.82561 21.7764 0
-4.771 22.2686 0
-4.37489 24.2591 0
-4.97859 23.6304 0
-14.0634 20.0503 0
-10.6533 21.3077 0
5.78665 24.4328 0
6.44675 23.3992 0
0.0981368 29.4744 0
2.93207 41.895 0
-8.25652 22.2364 0
-7.83583 23.2367 0
0.638809 42.9353 0
0.120255 44.6046 0
-9.45978 28.9269 0
-6.79099 30.5023 0
10.0833 21.1063 0
8.82333 22.1647 0
15.265 23.7043 0
12.9074 24.3737 0
6.20829 22.8209 0
7.12359 21.7524 0
2.61998 21.0207 0
4.46369 21.7184 0
3.73862 24.8039 0
5.35503 28.4454 0
5.15119 20.2685 0
6.22812 19.2645 0
2.02486 23.016 0
2.2601 24.2178 0
13.3052 19.085 0
10.0661 20.8777 0
-4.14244 36.3056 0
-3.33653 31.8358 0
-12.8047 29.9096 0
-15.0253 30.3116 0
0.0906443 21.3468 0
0.549223 22.6247 0
-7.18045 23.3197 0
-6.8209 23.9512 0
-9.85633 20.8247 0
-7.51975 21.1809 0
9.12982 26.1106 0
10.221 24.4308 0
-15.5056 26.2693 0
-13.2385 25.9971 0
-7.17588 24.8204 0
-7.00379 26.3613 0
4.15451 32.492 0
8.08781 31.9393 0
-12.2745 32.0861 0
-8.88707 29.7946 0
8.89319 26.615 0
5.9765 27.4441 0
2.69426 27.8118 0
1.72955 25.9794 0
-4.44591 25.9762 0
-4.31715 26.0307 0
9.8007 40.6716 0
10.8616 41.7461 0
0.232873 24.2524 0
1.62273 24.7306 0
-9.31708 24.3345 0
-9.39407 24.8616 0
4.19768 36.75 0
3.47765 40.9106 0
-2.89292 25.5256 0
-2.25062 26.603 0
14.0154 29.5212 0
12.041 29.2446 0
-5.17559 41.7998 0
-5.51185 43.5 0
-6.79673 40.2327 0
-4.62699 36.1938 0
10.5134 23.9786 0
10.1674 22.9109 0
-10.1383 27.1444 0
-8.86135 25.3008 0
12.9584 26.855 0
10.7294 25.981 0
-1.87559 36.8966 0
-0.219415 31.4849 0
-9.88801 22.3566 0
-10.2623 23.4884 0
16.0156 31.1663 0
14.3326 30.7444 0
15.5907 24.7975 0
13.3341 25.632 0
11.8734 36.9297 0
9.36547 34.757 0
-1.07184 29.4434 0
-0.898143 27.6732 0
-10.3146 36.6551 0
-12.3565 37.3457 0
3.77747 25.7137 0
2.55686 26.4192 0
7.52528 30.7133 0
7.38329 27.4338 0
6.3247 25.1242 0
5.27736 25.9541 0
-5.18445 29.2934 0
-4.39814 29.8532 0
8.49819 24.4036 0
8.26657 24.8262 0
5.84902 30.331 0
5.67685 32.9564 0
-12.5953 30.1678 0
-10.0251 28.9434 0
11.8199 37.9774 0
13.2069 38.8756 0
-8.29111 27.69 0
-5.19762 28.5649 0
-9.42637 37.7793 0
-7.12103 34.5007 0
3.14372 31.8884 0
2.32007 32.4645 0
-15.2283 29.0444 0
-12.8045 28.5724 0
-14.6746 31.9269 0
-13.0115 31.4573 0
-1.0391 38.9557 0
[...]
CELL_DATA 1119
SCALARS current_Length float
LOOKUP_TABLE default
0.878994
1.02714
1.48275
1.46639
1.65584
1.46714
0.526954
1.02865
1.78183
1.09189
1.03345
1.21621
1.75456
1.48746
0.488681
0.160115
1.75092
1.02283
0.0335322
0.593362
0.563921
0.835125
0.27841
0.709225
1.30101
1.06948
0.777182
1.06091
0.869788
2.0402
0.418959
0.542134
1.90665
0.498512
1.32383
1.15653
0.772904
0.826316
1.0681
0.950704
1.32554
0.861225
2.02556
0.00249762
1.27859
1.60047
1.48634
0.911896
0.764015
1.03939
0.727147
0.856678
1.19437
1.57934
1.86123
0.980161
0.960994
1.59186
1.19867
1.44384
1.10659
0.634696
0.704804
0.51399
1.10011
0.863472
1.12509
2.18553
1.72993
1.46811
0.856095
1.09009
1.4213
0.888562
1.09849
0.869598
1.02072
1.79842
1.07756
1.13629
0.855276
1.90499
0.337882
0.638066
0.550036
0.570899
1.00541
0.00249981
1.4171
0.00248845
1.27494
1.78989
0.729786
0.708884
1.26292
1.62124
0.00251633
1.65765
0.374339
0.598432
1.26782
1.04679
0.493284
1.53377
0.188662
0.595312
1.44648
0.379518
0.852009
1.56607
1.00207
1.1868
0.997377
1.24746
1.02538
1.63472
0.736961
0.963337
1.2743
0.483499
1.36537
0.0277708
1.26658
0.88997
0.59897
2.14882
0.717069
1.32249
2.32614
0.0438377
1.07879
1.06681
2.074
1.32099
2.57957
0.925658
2.71074
1.10334
2.27357
2.28897
1.63977
3.14451
0.186411
3.25109
1.27521
2.11352
2.19914
0.808064
2.19427
2.06037
2.33223
0.481079
2.61243
3.56838
1.06346
2.60739
1.27525
2.47804
1.15584
2.05152
2.0735
1.39183
2.76099
0.935143
3.05384
0.699786
2.57924
2.65443
1.75385
2.82549
0.615928
2.76622
1.39335
2.06413
1.55229
1.93008
2.08082
0.884835
2.12508
1.02068
0.0100769
0.543445
4.04772
0.794588
1.03671
2.99259
1.51654
1.68593
1.30243
0.270004
1.12046
1.88307
1.88699
1.03467
1.00693
1.26
1.16883
1.09311
1.67474
1.33955
1.23489
0.921086
1.05524
2.13361
1.09923
1.41315
1.32993
0.568919
1.78992
0.00250169
1.78879
1.45779
1.38013
0.829128
1.58407
1.57102
0.655191
1.42287
1.75775
1.67712
1.65278
1.88514
0.745035
1.1286
2.18003
0.496252
0.703919
2.48688
0.00249823
1.38365
1.58689
1.44036
1.81214
1.53846
0.668948
1.72449
2.722
0.919449
1.81769
1.82574
0.694802
0.999914
1.46206
1.29151
1.05493
1.56509
0.518842
0.524853
2.91524
0.62899
0.738635
2.02159
0.610566
1.70251
2.85305
1.08084
0.956458
1.48592
0.744017
0.969159
2.68235
1.6831
0.781703
1.02301
0.142842
1.18219
1.77964
0.71796
1.73871
2.63933
2.0869
1.12496
2.03023
0.752174
1.85848
2.47423
1.16628
0.919385
1.81788
0.293752
1.04945
2.98695
1.40725
0.0215501
3.06851
1.48033
0.716636
2.10781
1.02906
0.647457
1.6364
0.892128
0.44273
3.2286
0.959532
1.03962
2.1143
1.18745
2.03864
0.901617
1.62358
1.8038
0.529826
1.83737
1.50115
1.04606
1.72909
0.589097
2.93178
0.962063
2.1675
1.98828
1.38851
1.66614
1.4357
1.15752
1.27299
0.829576
1.47619
1.46638
0.230242
0.50845
1.57249
0.715648
0.00251385
1.04593
3.54015
1.42823
1.00446
2.56612
0.980024
0.00252227
3.5363
0.238605
1.8207
3.08555
0.581929
1.09912
2.13371
1.4735
1.00909
2.01938
0.892898
1.70012
1.67693
1.54858
1.12075
1.04474
0.7869
1.72269
1.77233
0.852133
0.993686
2.77744
0.745623
1.53198
1.12501
0.625354
1.67402
1.33497
0.830858
0.436602
0.712113
0.71533
0.773174
3.44542
2.20123
2.15228
0.622478
1.31123
0.279994
1.5931
0.396659
0.980072
3.11754
1.03267
1.03572
1.58407
0.448315
1.01059
1.47702
0.691625
1.89673
2.55032
1.90705
1.50449
1.25598
2.15156
1.49262
0.361656
1.83178
0.662272
2.66759
0.883833
1.2834
2.79368
1.67365
0.00250925
1.22736
0.419558
0.773146
2.01449
1.09918
0.978752
1.35253
1.33695
1.08745
1.64462
1.31642
0.10128
2.70143
1.58866
1.21817
1.24698
0.674429
0.0657297
1.93785
0.882679
0.544205
3.11755
1.36307
1.65941
0.864294
0.337351
1.04231
2.23197
0.662378
0.764324
2.5539
1.67546
2.46378
1.73467
0.912396
0.971653
1.69966
0.904989
0.217829
1.07676
0.838728
1.19493
3.11375
1.30359
1.37062
0.217657
2.12415
1.18219
0.972354
1.50638
0.334308
1.72369
0.658608
1.77387
2.65838
0.946285
1.48746
1.66354
1.08414
1.30846
1.78353
1.04499
1.46764
0.58042
0.780842
1.54828
0.410258
0.863572
0.390061
2.73461
1.76531
1.15845
1.38671
0.329268
1.51788
0.903465
1.28554
0.841559
2.24871
1.45219
1.13191
2.15554
0.308928
0.983759
1.43852
0.475549
0.831833
3.58618
0.423777
1.16246
2.01693
1.24551
0.762381
1.27371
1.55641
1.09137
1.73125
1.65939
1.06979
1.1424
0.732077
1.43044
2.29165
1.53408
2.22914
1.90976
1.63915
1.02814
1.74904
0.390873
0.688764
3.72024
0.0568869
1.26741
2.40483
0.997354
1.70391
0.339441
1.3021
1.15922
2.12688
1.7794
0.480328
1.90781
1.85214
0.669684
2.60321
1.73171
1.39207
1.10181
1.10609
1.56674
1.20043
0.29159
1.60381
1.228
0.562419
0.98547
2.87035
0.0101797
0.618634
4.44096
1.01775
0.181111
1.47835
0.684265
1.42081
1.47169
1.66772
0.795374
0.872928
0.906197
1.27252
1.01038
1.19118
0.503917
2.185
1.43253
0.88154
1.1718
1.17039
0.557117
0.239086
0.893019
2.33466
1.98973
1.5518
0.28815
1.82598
0.676149
1.41983
2.66818
1.67892
0.759666
0.766171
0.00251085
1.89149
1.57833
1.08122
1.35726
1.71895
0.681738
0.821437
1.74475
1.33949
1.32228
1.83452
1.79845
0.62364
2.7851
0.373649
1.14594
1.37751
2.1536
1.22722
2.04469
1.59783
1.09801
1.42864
1.05322
1.30202
2.28054
1.36839
1.19605
1.2534
1.35423
0.548562
1.78178
0.0616268
1.51242
1.55356
1.31491
1.19823
1.7407
0.868773
1.5486
1.23277
0.438569
0.145185
4.24328
1.08472
1.18618
1.73684
0.4829
1.20086
1.16384
0.565522
0.78742
0.871577
0.0100589
0.931905
3.63462
1.44259
0.625557
1.2264
1.23729
0.346839
0.884606
1.28509
0.660618
1.08515
1.46013
2.32924
1.74797
1.70166
0.177484
1.60687
1.4812
0.405967
1.64554
1.14067
0.820524
2.45079
1.58627
0.413897
1.40695
0.481652
1.14876
1.97132
0.821237
0.420584
0.910717
1.4497
0.333816
1.47231
0.562956
1.59043
1.22467
0.634597
0.229177
3.70216
0.497267
0.953724
0.993493
1.07866
1.08317
2.25663
0.592739
1.52663
1.35772
2.05368
1.87003
0.726657
0.402554
1.17367
2.36357
0.876083
0.935554
1.32663
1.96307
0.939816
2.28333
0.938875
1.90403
0.617263
0.80599
1.34886
0.736413
0.968839
1.03963
1.93832
0.364253
1.17845
1.18781
0.668964
1.27729
0.936937
0.902927
1.51116
0.139847
0.968241
1.90747
1.51
1.01456
0.818005
1.46979
1.84376
1.7526
0.532669
1.71958
1.12554
1.15909
1.07518
0.8766
1.25435
1.26361
0.872991
1.99368
0.824387
1.55313
1.73312
0.863121
1.22151
1.07099
0.53844
1.28824
1.12233
0.560437
0.690406
1.24663
0.739607
1.60486
1.77914
1.23847
1.86418
1.17026
1.63591
1.26859
1.19211
1.72285
0.856262
1.73504
1.87212
0.8216
2.4059
1.04067
1.39177
1.11879
1.48113
1.10361
0.911578
0.632161
1.70843
2.1555
0.600177
1.39935
1.4098
1.20173
1.40682
1.08722
1.9646
1.6459
0.113239
0.72853
0.959523
0.965272
1.72302
1.54752
0.481924
1.71932
1.23095
0.171173
0.332489
0.568289
1.78907
1.04912
1.84723
1.65247
1.44129
1.3793
1.52134
0.3614
1.23552
1.25672
1.17729
0.505262
1.00511
1.33815
0.634722
2.46935
1.65292
1.35495
1.72821
1.37719
1.8024
1.48797
1.66995
1.59928
0.507954
1.18817
1.27177
1.12579
0.641355
1.22148
1.24052
0.705128
1.28506
0.831267
0.00249937
1.71832
0.828893
0.626545
0.821636
1.63112
1.77009
1.16057
1.82417
1.84248
0.8236
1.44101
0.76957
0.472106
1.82888
0.31851
1.33102
1.65948
1.18047
1.02176
1.65463
2.27018
2.03767
0.947712
0.819993
0.492842
1.34889
0.704993
1.13655
1.42695
0.86323
0.581279
3.01395
1.11291
1.11766
0.770141
1.41995
2.24814
1.87681
0.629857
0.60255
2.55098
0.793893
1.28769
1.69538
1.93807
1.65765
0.934058
1.72497
1.65843
0.895027
0.977793
0.945098
1.33262
0.493981
1.36396
2.14741
0.224601
1.60891
0.548994
1.73691
0.794497
1.89719
1.00828
1.05185
1.13107
1.02135
1.18135
1.02763
0.892202
0.40489
1.30836
1.39036
0.840674
0.349951
1.78579
0.370523
1.96084
1.14822
0.895408
0.278413
0.943652
1.10904
2.02525
1.18042
1.16946
0.994841
1.73291
1.4816
1.60076
1.02697
1.17542
2.13163
0.849497
1.18457
1.92146
0.772046
1.24836
2.06226
1.41214
2.3106
1.6318
1.03048
1.42781
1.40894
1.1084
1.85625
0.970977
0.873683
0.499053
2.29688
1.23172
1.11794
1.20447
1.149
1.15985
1.14242
1.48712
1.49435
1.47681
0.922699
1.09704
1.25736
0.298302
1.03231
1.93654
0.994486
1.62974
1.52137
0.556011
0.735847
1.37421
0.688573
1.30534
0.939928
1.45445
0.609775
1.00929
1.4374
0.49107
1.77137
1.02941
1.02776
1.16336
1.64034
0.95808
1.69515
1.66307
0.931673
1.86743
1.31089
1.61239
1.50263
1.35424
1.12536
1.41394
1.88984
1.22799
1.2617
1.0903
1.32486
1.37638
1.50548
1.10376
0.735506
2.21282
1.00184
0.725186
1.04434
0.982218
0.927481
0.535405
1.82497
1.7765
0.872813
1.80613
1.70758
1.60877
0.862621
2.1051
1.19319
1.41303
1.12315
0.54457
0.136981
1.76857
1.33017
1.6254
1.33681
1.73118
2.02828
0.830123
1.65364
1.80218
1.89843
1.39607
1.3328
0.998571
1.22903
1.36589
0.774283
0.820312
1.04331
1.24059
1.22391
0.813229
1.37331
1.4542
1.06919
1.89341
1.42178
0.240674
2.5944
0.877219
1.45619
1.4229
1.57385
0.290772
0.881128
0.461662
0.826438
1.51952
1.565
1.556
1.13951
1.99278
1.16138
2.06393
0.435812
0.574474
2.01793
1.30912
0.815075
0.792492
1.0509
0.620816
1.8198
0.395103
1.33799
2.08879
1.39701
0.757886
1.23312
0.79914
1.4857
1.59435
0.799709
1.31689
1.20143
0.277124
1.0636
1.79762
1.04064
0.851032
1.46612
1.26007
1.35054
0.501279
1.34397
1.15094
1.2849
1.19646
1.70944
1.57529
0.503839
0.851596
1.55274
1.10657
1.04304
1.22382
0.811521
0.402511
2.46607
0.67937
1.4882
1.68133
1.0995
1.10247
1.74142
1.16051
1.38783
1.59995
0.830146
0.47234
2.14185
0.804828
1.10816
1.26824
1.72351
1.27155
1.30759
1.26268
1.26593
1.4528
1.29888
1.88747
1.17774
0.777517
1.06698
1.38346
0.729013
1.14302
1.58097

SCALARS edge_force float
LOOKUP_TABLE default
0.5
0.5
0.5
0.5
0.5
0.5
0.5
0.5
0.5
0.5
0.5
0.5
0.5
0.5
0.5
0.5
0.5
0.5
0.5
0.5
0.5
0.5
0.5
0.5
0.5
0.5
0.5
0.5
0.5
0.5
0.5
0.5
0.5
0.5
0.5
0.5
0.5
0.5
0.5
0.5
0.5
0.5
0.5
0.5
0.5
0.5
0.5
0.5
0.5
0.5
0.5
0.5
0.5
0.5
0.5
0.5
0.5
0.5
0.5
0.5
0.5
0.5
0.5
0.5
0.5
0.5
0.5
0.5
0.5
0.5
0.5
0.5
0.5
0.5
0.5
0.5
0.5
0.5
0.5
0.5
0.5
0.5
0.5
0.5
0.5
0.5
0.5
0.5
0.5
0.5
0.5
0.5
0.5
0.5
0.5
0.5
0.5
0.5
0.5
0.5
0.5
0.5
0.5
0.5
0.5
0.5
0.5
0.5
0.5
0.5
0.5
0.5
0.5
0.5
0.5
0.5
0.5
0.5
0.5
0.5
0.5
0.5
0.5
0.5
0.5
0.5
0.5
0.5
0.5
0.5
0.5
0.5
0.5
2
0.5
2
0.5
2
0.5
0.5
2
0.5
2
0.5
2
0.5
0.5
2
0.5
2
0.5
2
0.5
0.5
2
0.5
2
0.5
2
0.5
0.5
2
0.5
2
0.5
2
0.5
0.5
2
0.5
2
0.5
2
0.5
2
2
2
2
2
2
2
0.5
0.5
2
0.5
0.5
0.5
0.5
0.5
0.5
0.5
0.5
0.5
0.5
0.5
0.5
0.5
0.5
0.5
0.5
0.5
0.5
0.5
0.5
0.5
0.5
0.5
0.5
0.5
0.5
0.5
0.5
0.5
0.5
0.5
0.5
0.5
0.5
0.5
0.5
0.5
0.5
0.5
0.5
0.5
0.5
0.5
0.5
0.5
0.5
0.5
0.5
0.5
0.5
0.5
2
0.5
0.5
2
0.5
0.5
0.5
0.5
0.5
0.5
0.5
0.5
0.5
0.5
0.5
0.5
0.5
0.5
2
0.5
0.5
0.5
0.5
2
0.5
0.5
0.5
0.5
0.5
0.5
0.5
0.5
0.5
2
0.5
2
0.5
0.5
0.5
2
0.5
0.5
0.5
0.5
0.5
2
0.5
2
0.5
0.5
2
0.5
0.5
0.5
0.5
0.5
2
0.5
0.5
0.5
0.5
0.5
0.5
0.5
0.5
0.5
0.5
0.5
0.5
0.5
0.5
2
0.5
0.5
0.5
0.5
0.5
0.5
0.5
0.5
0.5
0.5
0.5
0.5
0.5
0.5
0.5
0.5
0.5
0.5
2
0.5
0.5
2
0.5
2
0.5
0.5
2
0.5
0.5
0.5
0.5
0.5
0.5
0.5
0.5
0.5
0.5
0.5
0.5
0.5
0.5
0.5
0.5
0.5
2
0.5
0.5
0.5
0.5
0.5
0.5
0.5
0.5
0.5
0.5
0.5
2
0.5
0.5
0.5
0.5
0.5
0.5
0.5
0.5
0.5
2
0.5
0.5
0.5
0.5
0.5
0.5
0.5
0.5
2
0.5
0.5
0.5
0.5
0.5
0.5
0.5
2
0.5
0.5
0.5
2
0.5
0.5
0.5
0.5
0.5
0.5
0.5
0.5
0.5
0.5
0.5
0.5
0.5
2
0.5
0.5
0.5
0.5
0.5
0.5
0.5
0.5
2
0.5
0.5
0.5
0.5
0.5
0.5
0.5
0.5
0.5
0.5
0.5
0.5
2
0.5
0.5
0.5
0.5
0.5
0.5
0.5
2
0.5
0.5
0.5
0.5
0.5
0.5
0.5
0.5
0.5
0.5
0.5
0.5
2
0.5
0.5
0.5
0.5
0.5
0.5
0.5
0.5
0.5
0.5
0.5
0.5
0.5
0.5
0.5
0.5
0.5
0.5
0.5
0.5
0.5
0.5
2
0.5
0.5
2
0.5
0.5
0.5
0.5
0.5
2
0.5
0.5
0.5
0.5
0.5
0.5
0.5
0.5
0.5
0.5
0.5
0.5
0.5
0.5
0.5
0.5
0.5
0.5
0.5
0.5
0.5
0.5
0.5
2
0.5
0.5
0.5
0.5
0.5
0.5
0.5
0.5
0.5
0.5
0.5
2
0.5
0.5
2
0.5
0.5
0.5
0.5
0.5
0.5
0.5
0.5
0.5
0.5
0.5
0.5
2
0.5
2
0.5
0.5
0.5
0.5
0.5
0.5
0.5
0.5
0.5
0.5
0.5
0.5
0.5
0.5
0.5
0.5
0.5
0.5
0.5
0.5
0.5
0.5
0.5
0.5
2
0.5
0.5
0.5
0.5
2
0.5
0.5
0.5
0.5
0.5
0.5
0.5
0.5
0.5
0.5
0.5
0.5
0.5
0.5
0.5
0.5
0.5
2
0.5
0.5
0.5
0.5
0.5
2
0.5
0.5
0.5
0.5
0.5
2
0.5
0.5
0.5
0.5
0.5
0.5
0.5
0.5
0.5
0.5
0.5
0.5
0.5
0.5
0.5
0.5
0.5
2
0.5
0.5
0.5
0.5
0.5
0.5
0.5
0.5
0.5
0.5
0.5
2
0.5
0.5
0.5
0.5
0.5
0.5
0.5
0.5
0.5
0.5
0.5
0.5
2
0.5
0.5
0.5
0.5
0.5
0.5
0.5
2
0.5
0.5
0.5
0.5
0.5
0.5
0.5
0.5
0.5
0.5
0.5
0.5
0.5
0.5
0.5
0.5
0.5
2
0.5
0.5
0.5
0.5
0.5
0.5
2
0.5
0.5
0.5
0.5
0.5
0.5
0.5
0.5
0.5
0.5
0.5
0.5
0.5
2
0.5
0.5
0.5
0.5
0.5
0.5
0.5
0.5
0.5
0.5
0.5
0.5
0.5
0.5
0.5
0.5
0.5
0.5
0.5
0.5
0.5
2
0.5
0.5
0.5
0.5
0.5
0.5
0.5
0.5
0.5
0.5
0.5
0.5
0.5
0.5
0.5
0.5
0.5
2
0.5
0.5
0.5
0.5
0.5
0.5
0.5
0.5
0.5
0.5
0.5
0.5
0.5
0.5
0.5
0.5
0.5
0.5
0.5
2
0.5
0.5
2
0.5
0.5
0.5
0.5
0.5
0.5
0.5
0.5
0.5
2
0.5
0.5
0.5
0.5
0.5
0.5
0.5
0.5
0.5
0.5
0.5
0.5
0.5
0.5
0.5
0.5
0.5
0.5
0.5
0.5
0.5
0.5
0.5
2
0.5
0.5
0.5
0.5
0.5
0.5
0.5
0.5
0.5
0.5
2
0.5
0.5
2
0.5
0.5
0.5
0.5
0.5
0.5
0.5
0.5
0.5
0.5
0.5
0.5
0.5
0.5
0.5
0.5
0.5
0.5
0.5
0.5
0.5
0.5
0.5
2
0.5
0.5
0.5
0.5
0.5
0.5
0.5
0.5
0.5
0.5
0.5
0.5
0.5
0.5
0.5
0.5
0.5
0.5
0.5
0.5
0.5
0.5
0.5
2
0.5
0.5
0.5
0.5
0.5
0.5
2
0.5
2
0.5
0.5
0.5
0.5
0.5
0.5
0.5
0.5
0.5
0.5
0.5
0.5
0.5
0.5
0.5
0.5
0.5
0.5
0.5
0.5
2
0.5
0.5
0.5
0.5
0.5
0.5
0.5
0.5
0.5
0.5
0.5
0.5
0.5
0.5
2
0.5
0.5
0.5
0.5
0.5
0.5
0.5
0.5
0.5
0.5
0.5
2
0.5
0.5
0.5
0.5
0.5
0.5
0.5
0.5
0.5
0.5
0.5
0.5
2
0.5
0.5
0.5
0.5
0.5
0.5
0.5
0.5
0.5
0.5
0.5
0.5
0.5
0.5
0.5
0.5
0.5
0.5
0.5
0.5
0.5
0.5
0.5
0.5
0.5
0.5
0.5
0.5
0.5
0.5
0.5
0.5
0.5
0.5
0.5
0.5
0.5
0.5
0.5
0.5
0.5
0.5
0.5
2
0.5
0.5
2
0.5
0.5
0.5
0.5
0.5
0.5
0.5
0.5
0.5
0.5
0.5
0.5
0.5
0.5
0.5
0.5
0.5
0.5
0.5
0.5
0.5
0.5
0.5
0.5
2
0.5
0.5
2
0.5
2
0.5
0.5
0.5
0.5
0.5
0.5
0.5
0.5
0.5
0.5
0.5
0.5
0.5
0.5
0.5
0.5
0.5
0.5
0.5
0.5
0.5
0.5
0.5
0.5
0.5
0.5
0.5
0.5
0.5
0.5
0.5
0.5
2
0.5
0.5
0.5
0.5
0.5
0.5
0.5
0.5
0.5
0.5
0.5
0.5
0.5
0.5
2
0.5
0.5
0.5
2
0.5
0.5
0.5
0.5
0.5
0.5
0.5
0.5
0.5
0.5
0.5
0.5
0.5
0.5
0.5
0.5
0.5
0.5
0.5
0.5
2
0.5
0.5
0.5
0.5
0.5
0.5
0.5
0.5
0.5
0.5
0.5
0.5
0.5
0.5
0.5
0.5
0.5
0.5
0.5
2
0.5
0.5
0.5
2
0.5
0.5
0.5
0.5
0.5
0.5
0.5
0.5
0.5
0.5
0.5
0.5
0.5
0.5
0.5
0.5
0.5
0.5
0.5
0.5
0.5
0.5
0.5
0.5
0.5
0.5
0.5
0.5
