# vtk DataFile Version 3.0
2D-vertex
ASCII
DATASET UNSTRUCTURED_GRID

POINTS 378 float
0.196785 -2.0689 0
2.72389 -1.91303 0
3.12949 -0.9985 0
2.15225 0.0785332 0
-0.189738 0.294637 0
-0.951752 -1.13276 0
3.70516 -0.976717 0
4.30003 -0.133503 0
3.44093 1.34555 0
2.32325 1.04696 0
1.17175 2.26707 0
-0.563018 2.83537 0
-1.37337 1.60463 0
-1.59714 1.55738 0
-2.13505 0.0054939 0
-1.65776 -0.877202 0
4.88372 -0.304063 0
5.7697 0.576953 0
4.0055 2.05985 0
3.66267 1.98574 0
2.85671 2.92664 0
1.70329 2.87491 0
1.19728 6.25116 0
0.122512 6.22787 0
-0.641651 4.46821 0
-1.99069 3.72017 0
-1.97257 1.94416 0
-3.32891 1.68271 0
-3.82931 0.75121 0
-3.54602 0.0411463 0
6.86155 0.567046 0
7.53966 1.33371 0
7.36241 2.63369 0
5.21129 3.7162 0
5.73132 4.31167 0
3.37943 5.53405 0
2.71281 6.68142 0
1.67867 6.86244 0
0.654816 9.64925 0
-1.09081 9.61119 0
-0.725032 7.03279 0
-2.47934 6.21361 0
-3.45811 4.87676 0
-4.54461 4.95363 0
-5.24405 3.73251 0
-6.6974 3.47761 0
-6.9883 2.50218 0
-5.43389 1.0559 0
7.86564 3.33821 0
7.56401 4.29728 0
6.8871 4.65987 0
6.23153 6.66079 0
3.85877 7.72777 0
3.78339 8.44234 0
2.30045 9.80873 0
2.89853 10.614 0
-2.16691 10.8121 0
-2.13913 10.2348 0
-3.31921 9.13519 0
-3.03244 7.20765 0
-4.83431 7.68611 0
-6.17415 6.55228 0
-8.14472 5.31709 0
-8.01761 4.71905 0
8.54362 4.74951 0
8.54893 4.76752 0
7.21701 6.69698 0
7.61036 7.9986 0
6.45345 9.0742 0
6.66966 9.85448 0
6.02262 10.6708 0
5.99126 11.0496 0
-2.91965 13.0756 0
-3.10009 12.9254 0
-6.68511 11.0982 0
-6.00948 10.0342 0
-6.7299 8.97393 0
-6.59457 8.63906 0
-9.11285 5.97585 0
-8.9503 5.51813 0
10.0549 5.0911 0
10.3936 6.13344 0
9.68093 7.15535 0
10.7819 7.56614 0
10.539 9.15968 0
10.7753 10.0058 0
9.70662 15.0761 0
9.69348 17.9341 0
-8.96697 17.8686 0
-9.02305 17.3915 0
-10.5617 11.0064 0
-10.2232 10.2826 0
-10.5805 9.71173 0
-9.82062 8.46698 0
-10.559 7.23217 0
-10.1164 6.13847 0
3.58515 -3.75569 0
4.8251 -3.22013 0
5.7045 -2.8112 0
8.13306 -1.21244 0
9.46231 0.239612 0
10.8357 2.58102 0
10.9627 2.80527 0
11.7104 3.94533 0
12.5033 5.91714 0
12.7226 6.76191 0
12.8664 10.4151 0
11.5742 19.0232 0
-11.2649 19.2081 0
-12.7638 11.1737 0
-12.7812 9.70299 0
-12.5108 6.98211 0
-11.7148 4.96381 0
-10.8816 3.78602 0
-10.2502 2.96667 0
-9.27187 1.49189 0
-7.31741 -0.708791 0
-5.21068 -2.1588 0
-3.08642 -3.19038 0
-0.0709068 -4.0579 0
12.5485 12.5355 0
9.27876 11.9998 0
-12.5511 14.6004 0
-10.2453 14.5823 0
-0.435709 4.19603 0
1.0126 4.29671 0
-1.99259 6.13167 0
-1.36635 4.47004 0
4.75746 5.73804 0
5.14939 6.68913 0
0.325251 10.9818 0
0.157983 10.1039 0
-1.30967 8.22164 0
-2.68296 7.9484 0
6.23098 6.66322 0
5.46059 8.52508 0
4.49733 8.96635 0
4.42942 10.1308 0
2.54216 11.3327 0
2.54045 11.3309 0
-2.95385 11.2674 0
-4.50139 10.0533 0
-4.07607 9.2324 0
-4.93099 8.27438 0
1.26237 1.70766 0
-0.239225 0.701771 0
6.54816 2.84883 0
5.43633 1.23266 0
5.20916 3.71749 0
3.17352 4.45128 0
-9.38798 12.4477 0
-6.44577 11.6351 0
3.1711 4.45063 0
1.65114 5.11005 0
-9.74552 8.31233 0
-8.319 7.57425 0
-1.00494 -1.15782 0
-1.46325 -3.78787 0
2.06872 24.9452 0
2.36986 26.4717 0
1.04506 -1.73039 0
1.17815 -0.328497 0
2.67649 8.81389 0
1.46072 7.67272 0
9.11226 11.3521 0
6.10828 10.8421 0
5.89471 22.0712 0
0.582076 12.5392 0
-2.94849 -0.243911 0
-3.68404 -2.92937 0
-4.68645 2.75718 0
-5.54867 1.67617 0
-5.88802 -1.75047 0
-4.80612 0.620645 0
0.429847 8.17541 0
-0.647385 7.67488 0
9.62929 6.90186 0
8.00595 6.08534 0
5.57363 0.0502435 0
7.21486 -1.92389 0
1.51351 -4.15753 0
1.58184 -2.17087 0
-6.52638 1.82004 0
-8.09565 0.0229151 0
-5.84144 5.43152 0
-7.12325 4.33634 0
7.67318 2.79356 0
10.0576 1.1395 0
-12.7038 8.3928 0
-9.82236 8.46517 0
12.9991 8.8495 0
10.9995 8.67536 0
-3.07084 3.9569 0
-3.95194 2.72013 0
-9.77604 2.29265 0
-7.12429 3.81461 0
-3.94546 7.05599 0
-4.72143 5.29177 0
-7.28344 7.66047 0
-6.85645 6.69897 0
8.61495 8.22527 0
8.86358 8.87416 0
-0.867076 12.3124 0
-0.785936 11.7008 0
12.5517 12.7346 0
10.2078 13.5217 0
9.53131 16.2977 0
2.41565 11.5617 0
8.2635 9.92762 0
9.60301 10.9495 0
-7.91222 9.21366 0
-8.23066 10.1678 0
-2.31175 14.5163 0
1.14845 13.8072 0
-9.91504 15.2708 0
-4.49656 13.0609 0
9.60246 10.952 0
12.6593 11.7077 0
-10.0618 17.0248 0
-11.8432 18.0392 0
-12.6662 12.4813 0
-9.66125 12.0991 0
9.74895 21.6724 0
8.32046 19.7403 0
8.89959 12.3958 0
6.86069 12.2507 0
-9.65163 12.0718 0
-7.84868 10.9635 0
2.69489 14.6297 0
4.61663 13.4179 0
-4.99985 11.8274 0
-4.16222 10.8315 0
5.31835 13.3341 0
4.60491 11.6402 0
12.5687 14.7121 0
10.356 14.3773 0
-2.9561 14.2308 0
-4.96427 14.1775 0
-2.28203 24.0985 0
0.239267 15.054 0
-7.09101 12.4869 0
-4.98166 13.5489 0
-12.604 13.4071 0
-9.83835 13.3244 0
5.79815 17.761 0
7.90109 16.4367 0
-0.865857 13.7683 0
-0.554538 12.6126 0
-7.54731 21.7249 0
-9.04333 22.8979 0
1.13502 24.5655 0
2.45538 15.6557 0
-2.93258 16.6811 0
-6.8356 22.0539 0
-10.3953 15.92 0
-12.4263 16.0288 0
-6.60093 16.2867 0
-6.42238 14.8558 0
-6.89599 12.9964 0
-7.60442 14.3347 0
12.2067 17.1505 0
9.9791 16.9566 0
-5.29332 23.5335 0
-5.60331 25.3509 0
6.47629 13.2149 0
5.32017 13.3323 0
8.92526 18.2923 0
7.6467 17.4176 0
4.26143 14.413 0
6.31515 17.4984 0
-2.04066 15.5342 0
-0.262321 15.8134 0
7.22387 24.2533 0
5.82487 22.9089 0
0.523563 15.0305 0
1.56705 16.0547 0
3.982 23.3207 0
4.02348 16.7957 0
12.4073 15.9393 0
9.93671 15.6414 0
-8.16023 16.4638 0
-8.60587 15.4334 0
-9.65215 13.659 0
-7.72331 13.9141 0
-7.61288 20.9677 0
-5.82563 17.8118 0
0.387703 25.0474 0
0.426212 26.7029 0
2.11293 13.8082 0
2.99216 12.5497 0
-3.87747 16.1844 0
-4.11494 15.2519 0
-10.0241 21.5166 0
-8.4178 20.542 0
0.348792 17.3707 0
-0.117547 16.9842 0
7.91505 14.6699 0
7.2878 15.4039 0
9.09204 13.12 0
7.8143 14.1712 0
-6.70088 23.0196 0
-7.72846 24.2261 0
-2.51969 16.5404 0
-1.41505 17.547 0
1.69427 17.3266 0
3.17412 17.6493 0
6.45508 15.3057 0
6.04796 15.802 0
-6.04179 19.7473 0
-5.40566 20.0441 0
-8.46858 18.1434 0
-6.30674 17.2722 0
3.9687 16.4835 0
4.87765 15.5729 0
-4.35693 22.4433 0
-3.24163 18.398 0
5.43222 25.4294 0
4.76149 23.5981 0
-3.39341 26.1109 0
-2.70837 24.1532 0
7.38468 19.6559 0
6.89208 17.8223 0
8.27743 23.2157 0
6.64818 21.7574 0
3.50531 19.5375 0
4.83237 20.5316 0
1.04663 19.6335 0
2.95304 19.7469 0
0.256172 22.3993 0
-1.3599 22.6198 0
-1.79373 21.4014 0
-2.83679 20.5364 0
-6.16946 16.6479 0
-4.21119 15.2322 0
-4.45517 22.4501 0
-5.49406 21.3278 0
3.83239 21.8947 0
4.80491 21.3437 0
-10.7665 20.1824 0
-8.5308 19.0771 0
-8.31909 19.2334 0
-6.36454 18.8749 0
-0.984244 19.4255 0
0.0357276 18.9479 0
3.08395 23.8599 0
1.01944 20.6619 0
4.0739 25.9828 0
3.38302 23.9146 0
-4.71124 25.6474 0
-3.76896 23.2928 0
-5.05973 17.7295 0
-4.30593 18.6826 0
6.90875 20.3783 0
6.02287 19.7832 0
1.66886 17.3531 0
1.96714 19.1068 0
8.96604 19.0799 0
10.9416 20.1668 0
9.08877 22.3486 0
7.0875 20.3292 0
-3.36337 23.256 0
-2.32134 21.348 0
-1.63791 18.945 0
-2.39698 19.2022 0
2.28254 21.5013 0
2.80617 21.2592 0
-4.55266 19.6685 0
-3.59692 20.65 0
3.75782 18.7343 0
5.57628 18.5698 0
-0.955808 20.6034 0
0.195322 21.1495 0
1.1114 22.8867 0
2.13059 22.474 0
-1.33884 25.1048 0
-1.58031 26.5627 0
-0.31578 24.6441 0
-0.426968 22.8894 0

CELLS 567 1701
2 160 0
2 1 2
2 2 3
2 161 4
2 4 5
2 5 0
2 2 6
2 6 7
2 7 8
2 8 9
2 3 9
2 9 144
2 10 11
2 11 12
2 145 4
2 12 13
2 13 14
2 15 14
2 5 156
2 7 16
2 17 178
2 147 17
2 19 18
2 19 8
2 20 19
2 21 20
2 10 21
2 153 125
2 23 22
2 24 23
2 24 124
2 127 24
2 26 25
2 26 13
2 27 26
2 28 27
2 29 28
2 14 168
2 30 17
2 30 31
2 32 31
2 32 146
2 18 33
2 33 148
2 128 35
2 20 152
2 35 36
2 37 36
2 22 37
2 37 163
2 38 131
2 175 40
2 40 23
2 126 40
2 42 41
2 25 192
2 43 42
2 43 44
2 193 27
2 45 44
2 46 45
2 47 171
2 173 47
2 48 186
2 48 49
2 49 50
2 34 50
2 50 51
2 52 129
2 36 52
2 52 53
2 53 162
2 54 38
2 55 54
2 139 55
2 57 56
2 39 57
2 58 57
2 59 133
2 41 59
2 59 196
2 61 60
2 197 43
2 199 61
2 62 63
2 195 185
2 49 64
2 64 65
2 177 65
2 51 134
2 67 66
2 68 67
2 53 136
2 69 68
2 70 69
2 55 137
2 165 70
2 233 71
2 73 72
2 140 56
2 215 73
2 74 75
2 58 142
2 76 75
2 77 76
2 60 143
2 77 198
2 78 79
2 79 62
2 65 80
2 80 81
2 81 176
2 67 200
2 82 83
2 83 191
2 69 208
2 84 85
2 164 216
2 71 225
2 86 279
2 158 250
2 88 89
2 290 252
2 254 214
2 90 91
2 91 211
2 91 92
2 92 93
2 93 210
2 189 93
2 94 95
2 95 78
2 96 1
2 96 97
2 97 6
2 97 98
2 16 98
2 179 99
2 99 30
2 31 100
2 187 101
2 101 48
2 101 102
2 102 64
2 102 103
2 103 80
2 81 104
2 104 105
2 83 105
2 105 190
2 85 106
2 217 120
2 87 107
2 108 88
2 255 122
2 109 90
2 109 110
2 92 110
2 110 188
2 111 94
2 95 112
2 112 113
2 113 79
2 113 114
2 63 114
2 114 194
2 115 46
2 116 47
2 116 172
2 117 29
2 169 118
2 118 15
2 157 119
2 0 119
2 119 180
2 99 100
2 103 104
2 249 292
2 111 112
2 183 116
2 120 204
2 121 224
2 120 121
2 122 242
2 123 282
2 122 123
2 124 11
2 125 21
2 124 125
2 41 126
2 127 25
2 126 127
2 34 128
2 129 51
2 128 129
2 203 130
2 131 39
2 130 131
2 39 132
2 133 58
2 132 133
2 134 66
2 135 68
2 134 135
2 136 135
2 137 70
2 136 137
2 207 138
2 130 139
2 139 138
2 140 73
2 75 141
2 231 140
2 142 141
2 143 77
2 142 143
2 144 10
2 145 12
2 144 145
2 146 33
2 147 18
2 146 147
2 148 34
2 149 35
2 148 149
2 221 150
2 151 74
2 150 240
2 152 149
2 153 22
2 152 153
2 94 154
2 155 78
2 154 155
2 156 15
2 157 118
2 156 157
2 266 87
2 357 222
2 159 158
2 181 160
2 161 3
2 160 161
2 162 54
2 163 174
2 162 163
2 164 121
2 71 165
2 165 164
2 166 273
2 247 167
2 166 337
2 168 29
2 169 117
2 168 169
2 44 170
2 171 182
2 170 171
2 172 117
2 173 28
2 172 173
2 174 38
2 175 132
2 174 175
2 176 82
2 177 66
2 176 177
2 178 16
2 179 98
2 178 179
2 180 96
2 181 1
2 180 181
2 182 46
2 183 115
2 182 183
2 61 184
2 185 63
2 184 185
2 186 32
2 187 100
2 186 187
2 188 111
2 189 154
2 188 189
2 190 106
2 191 84
2 190 191
2 192 42
2 193 170
2 192 193
2 194 115
2 195 45
2 194 195
2 196 60
2 197 184
2 196 197
2 198 155
2 199 62
2 198 199
2 200 82
2 201 84
2 200 201
2 72 202
2 203 56
2 202 203
2 204 234
2 205 235
2 205 204
2 261 206
2 167 207
2 206 245
2 208 201
2 209 85
2 208 209
2 210 76
2 227 74
2 210 211
2 236 72
2 213 167
2 239 274
2 214 123
2 230 215
2 241 237
2 216 209
2 217 106
2 216 217
2 89 218
2 219 108
2 218 219
2 220 109
2 221 226
2 220 221
2 222 358
2 320 223
2 223 222
2 224 298
2 264 225
2 225 224
2 226 90
2 227 211
2 226 227
2 228 288
2 289 229
2 228 268
2 151 230
2 231 141
2 230 231
2 229 232
2 233 138
2 265 233
2 234 278
2 235 86
2 235 234
2 236 212
2 257 237
2 291 236
2 248 284
2 246 239
2 271 295
2 240 151
2 241 215
2 240 258
2 242 220
2 243 150
2 242 243
2 277 244
2 232 306
2 245 267
2 212 246
2 247 202
2 246 247
2 253 248
2 301 249
2 249 248
2 374 238
2 251 228
2 294 354
2 252 302
2 300 253
2 335 309
2 218 254
2 255 219
2 254 255
2 280 256
2 259 281
2 256 257
2 258 241
2 259 257
2 283 259
2 260 107
2 261 87
2 260 261
2 319 238
2 375 318
2 263 262
2 299 264
2 232 265
2 265 264
2 223 356
2 244 269
2 267 266
2 268 229
2 321 267
2 313 307
2 212 270
2 271 239
2 270 271
2 272 316
2 273 317
2 272 273
2 274 213
2 275 251
2 274 275
2 276 347
2 277 312
2 336 276
2 278 260
2 279 206
2 278 279
2 89 280
2 281 214
2 280 281
2 282 243
2 283 258
2 282 283
2 284 293
2 311 285
2 308 284
2 250 286
2 287 159
2 286 287
2 288 213
2 289 207
2 288 289
2 285 350
2 333 291
2 291 290
2 292 338
2 293 340
2 293 292
2 326 345
2 330 370
2 295 294
2 86 296
2 297 245
2 296 297
2 298 205
2 299 296
2 298 299
2 262 300
2 301 263
2 300 301
2 302 270
2 303 295
2 302 303
2 304 275
2 305 277
2 304 305
2 306 297
2 307 269
2 306 307
2 308 341
2 315 252
2 309 308
2 88 310
2 311 332
2 310 311
2 312 251
2 313 268
2 312 313
2 314 334
2 309 366
2 315 363
2 316 346
2 276 317
2 317 316
2 318 348
2 319 360
2 318 319
2 359 320
2 269 321
2 321 320
2 322 272
2 323 166
2 322 323
2 324 368
2 369 353
2 325 324
2 343 326
2 324 327
2 326 355
2 372 250
2 238 329
2 377 328
2 329 330
2 367 314
2 330 361
2 332 256
2 333 237
2 332 333
2 262 334
2 335 253
2 334 335
2 365 336
2 337 325
2 336 337
2 338 108
2 339 310
2 338 339
2 340 339
2 341 285
2 340 341
2 303 362
2 343 294
2 342 343
2 344 158
2 328 371
2 373 344
2 346 159
2 347 344
2 346 347
2 348 263
2 349 314
2 348 349
2 350 290
2 351 315
2 350 351
2 323 352
2 353 325
2 352 353
2 354 304
2 355 327
2 354 355
2 356 266
2 357 107
2 356 357
2 358 322
2 359 352
2 358 359
2 360 349
2 361 331
2 360 361
2 362 342
2 363 331
2 362 363
2 345 364
2 365 327
2 364 365
2 366 351
2 367 331
2 366 367
2 368 305
2 369 244
2 368 369
2 370 342
2 371 345
2 370 371
2 328 372
2 373 364
2 372 373
2 286 376
2 375 287
2 374 375
2 376 374
2 377 329
2 376 377

CELL_TYPES 567
3
3
3
3
3
3
3
3
3
3
3
3
3
3
3
3
3
3
3
3
3
3
3
3
3
3
3
3
3
3
3
3
3
3
3
3
3
3
3
3
3
3
3
3
3
3
3
3
3
3
3
3
3
3
3
3
3
3
3
3
3
3
3
3
3
3
3
3
3
3
3
3
3
3
3
3
3
3
3
3
3
3
3
3
3
3
3
3
3
3
3
3
3
3
3
3
3
3
3
3
3
3
3
3
3
3
3
3
3
3
3
3
3
3
3
3
3
3
3
3
3
3
3
3
3
3
3
3
3
3
3
3
3
3
3
3
3
3
3
3
3
3
3
3
3
3
3
3
3
3
3
3
3
3
3
3
3
3
3
3
3
3
3
3
3
3
3
3
3
3
3
3
3
3
3
3
3
3
3
3
3
3
3
3
3
3
3
3
3
3
3
3
3
3
3
3
3
3
3
3
3
3
3
3
3
3
3
3
3
3
3
3
3
3
3
3
3
3
3
3
3
3
3
3
3
3
3
3
3
3
3
3
3
3
3
3
3
3
3
3
3
3
3
3
3
3
3
3
3
3
3
3
3
3
3
3
3
3
3
3
3
3
3
3
3
3
3
3
3
3
3
3
3
3
3
3
3
3
3
3
3
3
3
3
3
3
3
3
3
3
3
3
3
3
3
3
3
3
3
3
3
3
3
3
3
3
3
3
3
3
3
3
3
3
3
3
3
3
3
3
3
3
3
3
3
3
3
3
3
3
3
3
3
3
3
3
3
3
3
3
3
3
3
3
3
3
3
3
3
3
3
3
3
3
3
3
3
3
3
3
3
3
3
3
3
3
3
3
3
3
3
3
3
3
3
3
3
3
3
3
3
3
3
3
3
3
3
3
3
3
3
3
3
3
3
3
3
3
3
3
3
3
3
3
3
3
3
3
3
3
3
3
3
3
3
3
3
3
3
3
3
3
3
3
3
3
3
3
3
3
3
3
3
3
3
3
3
3
3
3
3
3
3
3
3
3
3
3
3
3
3
3
3
3
3
3
3
3
3
3
3
3
3
3
3
3
3
3
3
3
3
3
3
3
3
3
3
3
3
3
3
3
3
3
3
3
3
3
3
3
3
3
3
3
3
3
3
3
3
3
3
3
3
3
3
3
3
3
3
3
3
3
3
3
3
3
3
3
3
3
3
3
3
3
3
3
3
3
3
3
3
3
3
3
3
3
3
3
3
3
3
3
3
3
3
3
3
3
3
3
3
3
3
3
3
3
3
3
3
3
3
3
3
3
3
3
3

CELL_DATA 567
SCALARS current_Length float
LOOKUP_TABLE default
0.913325
1.00043
1.4543
1.50314
1.61807
1.48172
0.576083
1.03193
1.71046
1.15688
0.983412
1.2498
1.82548
1.47357
0.410131
0.2287
1.64247
1.00347
0.0587926
0.608092
0.562017
0.735581
0.350746
0.677499
1.2389
1.15458
0.807468
1.03405
1.07502
1.91842
0.341316
0.724696
1.7761
0.539026
1.38131
1.0574
0.764488
0.850817
1.0919
1.02353
1.312
0.842197
2.04877
0.00249772
1.39305
1.55608
1.32697
1.04987
0.778075
0.839079
0.673441
0.646773
1.16885
1.55522
1.65685
1.10579
1.08922
1.40724
1.21012
1.47553
1.01788
0.6308
0.763909
0.577653
1.00538
0.767904
1.20709
2.10557
1.65664
1.5518
0.718537
1.1676
1.65335
1.00305
0.80136
0.577983
1.21976
1.61296
0.819056
1.13756
0.925524
1.7552
0.381578
0.697884
0.6114
0.52173
1.07895
0.0187831
1.4253
0.00249479
1.35976
1.57966
0.885607
0.809686
1.04168
1.60533
0.191475
1.5069
0.23478
0.909153
1.40303
1.26039
0.763076
1.28189
0.361187
0.596165
1.19674
0.485719
0.830295
1.54029
1.09602
1.08383
1.02984
1.17509
1.13036
1.59551
0.878484
0.632808
1.48279
0.610335
1.00794
0.48043
1.06748
0.807535
0.799088
1.99589
0.67344
1.45838
2.04928
0.00251105
1.17985
1.01663
2.034
1.35067
2.50743
0.969832
2.63807
1.16158
2.18708
2.21216
1.63812
3.06504
0.257719
3.10354
1.36336
2.01334
2.12072
0.87277
2.10079
2.10582
2.13079
0.835173
2.17333
2.65975
1.4338
2.20843
1.47079
2.20065
1.31248
1.96778
1.98363
1.44273
2.59425
1.03439
2.8382
0.824111
2.49708
2.58104
1.76868
2.75878
0.652129
2.71879
1.41828
2.00693
1.58755
1.96859
2.12528
1.69412
2.16958
1.0682
0.199167
0.548284
3.31337
1.19443
1.09733
2.30591
1.3666
1.58068
1.45181
0.493604
0.975763
1.77572
1.72712
1.08252
1.02868
1.32349
1.34247
0.893757
1.40668
1.34658
1.40021
0.986616
1.13459
2.01495
1.05952
1.68223
1.16642
0.261589
2.24253
0.00251075
1.66445
1.50821
1.28458
0.924567
1.70308
1.28402
0.566706
1.44964
1.80737
1.59359
1.65273
1.96168
0.791013
1.10217
2.16386
0.442979
0.587816
2.2973
0.00250415
1.22805
1.65684
1.35219
1.78469
1.60615
0.710583
1.72965
2.66968
0.847617
1.92071
1.55594
0.694372
1.05572
1.4082
1.06354
1.1469
1.66745
0.668669
0.238229
3.04698
0.84061
1.13898
1.31034
0.662041
1.71009
2.78437
1.12347
0.988236
1.38275
0.790906
0.985492
2.60628
1.49091
0.858813
1.18784
0.258699
0.998257
1.81713
0.775576
1.75171
2.56726
2.11025
1.1708
1.98783
0.823822
1.88185
2.38585
1.1691
0.972807
1.68596
0.34948
1.07895
2.90194
1.42382
0.171074
2.8823
1.57121
0.668264
2.00723
0.998051
0.735448
1.51853
0.946255
0.543878
3.05747
1.08954
1.1287
1.92733
1.03914
1.88925
1.05205
1.51032
1.6996
0.69489
2.18986
1.64223
0.616958
1.97754
0.868342
2.47248
0.796689
2.07789
1.63613
1.21238
1.50491
1.68481
1.20637
1.17134
1.00592
1.15584
1.38868
0.285268
0.763625
1.33228
0.628812
0.00250942
1.30904
3.14883
1.10156
1.30413
2.04996
1.31128
0.0289534
3.02914
0.945064
0.939574
2.4028
0.749339
1.03799
2.04406
1.40113
0.882629
2.11632
1.00678
1.8419
1.58146
1.45864
0.848834
1.30131
0.70671
2.08554
1.83711
1.23784
0.95397
2.23786
0.704739
1.60817
1.54454
0.76006
1.69539
1.17978
1.06856
0.688087
0.545539
0.927915
0.985632
2.76684
2.02018
2.27582
1.01329
1.6279
0.433355
1.19689
0.784047
1.86898
1.90102
1.3792
1.0536
1.32019
0.436194
0.975044
1.28671
1.15407
2.09327
2.03386
1.56934
1.48664
1.44197
1.99248
1.2918
0.437098
1.97668
1.01835
2.23606
0.42984
1.86853
1.84367
1.64462
0.00251203
1.16207
0.923586
0.579848
1.54912
1.05659
0.856291
1.19251
1.05341
0.910072
1.80012
2.14321
1.26719
1.94023
1.37366
0.973829
1.46218
0.843449
0.317013
1.43381
1.22765
0.771356
2.48849
1.26688
1.31923
1.12263
0.382934
1.2356
1.94563
0.91055
0.722947
1.98939
0.889214
1.95734
1.65594
0.964486
1.14393
1.53519
0.770306
0.0982427
0.962224
1.52676
1.31228
1.87884
1.02881
1.15715
0.60566
1.83704
1.2012
0.9655
1.18587
0.508748
1.65459
1.49846
2.40447
1.58482
1.11444
1.4143
1.49447
1.27818
1.20418
1.51464
0.8385
1.71734
0.641932
0.930154
1.74452
0.701955
0.569113
0.639255
2.33078
1.72491
1.31345
1.28662
0.0984694
0.932044
1.16626
1.46669
0.827386
1.95027
1.39696
1.11087
2.07409
0.735938
0.661617
1.8987
1.47874
0.816207
2.18653
0.841983
1.29303
1.65808
1.22145
0.590637
1.06051
1.67891
1.74269
0.840765
1.29327
1.94769
0.53031
0.562688
1.296
2.41637
1.36979
1.52544
1.52933
1.20709
0.812581
1.11779
1.09442
0.935796
2.49401
0.263169
1.19192
1.98716
1.41564
1.60799
1.12625
1.48613
1.25128
1.68211
1.7728
0.304031
2.18054
0.940052
1.03315
2.53612
1.94551
1.10171
1.2152
1.40355
1.40617
1.06717
0.0367174
1.17545
1.77895
0.788654
1.3069
2.25484
1.18743
0.185366
2.84309
0.407253
0.961503
2.17395
0.811263
1.40478
0.801475
1.51654
1.51937
0.576886
1.01623
0.768579
1.37
1.232
0.838687
1.82588
1.17823
0.957566
1.27413
0.984365
0.984545
1.09959
0.810894
2.01142
1.47774
1.12201
0.971129
1.75814

SCALARS edge_force float
LOOKUP_TABLE default
0.5
0.5
0.5
0.5
0.5
0.5
0.5
0.5
0.5
0.5
0.5
0.5
0.5
0.5
0.5
0.5
0.5
0.5
0.5
0.5
0.5
0.5
0.5
0.5
0.5
0.5
0.5
0.5
0.5
0.5
0.5
0.5
0.5
0.5
0.5
0.5
0.5
0.5
0.5
0.5
0.5
0.5
0.5
0.5
0.5
0.5
0.5
0.5
0.5
0.5
0.5
0.5
0.5
0.5
0.5
0.5
0.5
0.5
0.5
0.5
0.5
0.5
0.5
0.5
0.5
0.5
0.5
0.5
0.5
0.5
0.5
0.5
0.5
0.5
0.5
0.5
0.5
0.5
0.5
0.5
0.5
0.5
0.5
0.5
0.5
0.5
0.5
0.5
0.5
0.5
0.5
0.5
0.5
0.5
0.5
0.5
0.5
0.5
0.5
0.5
0.5
0.5
0.5
0.5
0.5
0.5
0.5
0.5
0.5
0.5
0.5
0.5
0.5
0.5
0.5
0.5
0.5
0.5
0.5
0.5
0.5
0.5
0.5
0.5
0.5
0.5
0.5
0.5
0.5
0.5
0.5
0.5
0.5
2
0.5
2
0.5
2
0.5
0.5
2
0.5
2
0.5
2
0.5
0.5
2
0.5
2
0.5
2
0.5
0.5
2
0.5
2
0.5
2
0.5
0.5
2
0.5
2
0.5
2
0.5
0.5
2
0.5
2
0.5
2
0.5
2
2
2
2
2
2
2
0.5
0.5
2
0.5
0.5
0.5
0.5
0.5
0.5
0.5
0.5
0.5
0.5
0.5
0.5
0.5
0.5
0.5
0.5
0.5
0.5
0.5
0.5
0.5
0.5
0.5
0.5
0.5
0.5
0.5
0.5
0.5
0.5
0.5
0.5
0.5
0.5
0.5
0.5
0.5
0.5
0.5
0.5
0.5
0.5
0.5
0.5
0.5
0.5
0.5
0.5
0.5
0.5
0.5
2
0.5
0.5
2
0.5
0.5
0.5
0.5
0.5
0.5
0.5
0.5
0.5
0.5
0.5
0.5
0.5
0.5
2
0.5
0.5
0.5
0.5
2
0.5
0.5
0.5
0.5
0.5
0.5
0.5
0.5
0.5
2
0.5
2
0.5
0.5
0.5
2
0.5
0.5
0.5
0.5
0.5
2
0.5
2
0.5
0.5
2
0.5
0.5
0.5
0.5
0.5
2
0.5
0.5
0.5
0.5
0.5
0.5
0.5
0.5
0.5
0.5
0.5
0.5
0.5
0.5
2
0.5
0.5
0.5
0.5
0.5
0.5
0.5
0.5
0.5
0.5
0.5
0.5
0.5
0.5
0.5
0.5
0.5
0.5
2
0.5
0.5
2
0.5
2
0.5
0.5
2
0.5
0.5
0.5
0.5
0.5
0.5
0.5
0.5
0.5
0.5
0.5
0.5
0.5
0.5
0.5
0.5
0.5
2
0.5
0.5
0.5
0.5
0.5
0.5
0.5
0.5
0.5
0.5
0.5
2
0.5
0.5
0.5
0.5
0.5
0.5
0.5
0.5
0.5
2
0.5
0.5
0.5
0.5
0.5
0.5
0.5
0.5
2
0.5
0.5
0.5
0.5
0.5
0.5
0.5
2
0.5
0.5
0.5
2
0.5
0.5
0.5
0.5
0.5
0.5
0.5
0.5
0.5
0.5
0.5
0.5
0.5
2
0.5
0.5
0.5
0.5
0.5
0.5
0.5
0.5
2
0.5
0.5
0.5
0.5
0.5
0.5
0.5
0.5
0.5
0.5
0.5
0.5
2
0.5
0.5
0.5
0.5
0.5
0.5
0.5
2
0.5
0.5
0.5
0.5
0.5
0.5
0.5
0.5
0.5
0.5
0.5
0.5
2
0.5
0.5
0.5
0.5
0.5
0.5
0.5
0.5
0.5
0.5
0.5
0.5
0.5
0.5
0.5
0.5
0.5
0.5
0.5
0.5
0.5
0.5
2
0.5
0.5
2
0.5
0.5
0.5
0.5
0.5
2
0.5
0.5
0.5
0.5
0.5
0.5
0.5
0.5
0.5
0.5
0.5
0.5
0.5
0.5
0.5
0.5
0.5
0.5
0.5
0.5
0.5
0.5
0.5
2
0.5
0.5
0.5
0.5
0.5
0.5
0.5
0.5
0.5
0.5
0.5
2
0.5
0.5
2
0.5
0.5
0.5
0.5
0.5
0.5
0.5
0.5
0.5
0.5
0.5
0.5
2
0.5
2
0.5
0.5
0.5
0.5
0.5
0.5
0.5
0.5
0.5
0.5
0.5
0.5
0.5
0.5
0.5
0.5
0.5
0.5
0.5
0.5
0.5
0.5
0.5
0.5
2
0.5
0.5
0.5
0.5
