# vtk DataFile Version 2.0
2D-vertex
ASCII
DATASET UNSTRUCTURED_GRID
POINTS 406 float
0.160045 -2.1731 0
2.66622 -2.03784 0
3.08059 -1.11947 0
2.10512 -0.0303083 0
-0.215117 0.197774 0
-0.983794 -1.23718 0
3.64343 -1.10233 0
4.24464 -0.265555 0
3.38873 1.23635 0
2.28393 0.948744 0
1.14262 2.19318 0
-0.576223 2.76047 0
-1.38975 1.52833 0
-1.59754 1.48496 0
-2.14772 -0.0903196 0
-1.67146 -0.980401 0
4.82419 -0.441981 0
5.70335 0.424276 0
3.94426 1.94825 0
3.61624 1.87999 0
2.80639 2.83814 0
1.67075 2.79299 0
1.17797 6.22156 0
0.139547 6.20906 0
-0.651133 4.43826 0
-1.98071 3.67108 0
-1.96486 1.86619 0
-3.30834 1.60965 0
-3.82108 0.657234 0
-3.53968 -0.0561465 0
6.78972 0.402549 0
7.46421 1.14575 0
7.30877 2.45257 0
5.15644 3.59096 0
5.6722 4.17337 0
3.33936 5.4541 0
2.67198 6.63382 0
1.6612 6.82392 0
0.673658 9.6718 0
-1.05064 9.67401 0
-0.708079 7.0253 0
-2.42346 6.19619 0
-3.42418 4.82638 0
-4.48456 4.89931 0
-5.20009 3.64092 0
-6.64651 3.38072 0
-6.94279 2.38402 0
-5.40844 0.95443 0
7.80153 3.12594 0
7.50497 4.11249 0
6.81599 4.50003 0
6.18167 6.51896 0
3.82481 7.65215 0
3.76148 8.3823 0
2.28912 9.80766 0
2.87414 10.5754 0
-2.11146 10.9038 0
-2.07727 10.28 0
-3.2668 9.14947 0
-2.98067 7.18837 0
-4.75484 7.63894 0
-6.10499 6.47112 0
-8.07227 5.18509 0
-7.94228 4.60425 0
8.48709 4.54044 0
8.48758 4.54289 0
7.1597 6.52275 0
7.58572 7.78849 0
6.43201 8.92669 0
6.66091 9.66889 0
6.01766 10.5346 0
5.94141 10.8911 0
-2.87537 13.1614 0
-3.06258 12.9935 0
-6.59893 10.9711 0
-5.9188 9.96799 0
-6.635 8.85581 0
-6.50828 8.5588 0
-9.0468 5.80641 0
-8.88679 5.37646 0
10.0097 4.83763 0
10.3617 5.84898 0
9.64932 6.8751 0
10.7801 7.26691 0
10.5638 8.84437 0
10.8098 9.66012 0
9.94282 14.6498 0
10.2443 17.3685 0
-9.33063 17.4109 0
-9.33922 17.0148 0
-10.5225 10.7228 0
-10.1842 10.0433 0
-10.5309 9.46376 0
-9.7689 8.25283 0
-10.5151 7.01827 0
-10.0662 5.95527 0
3.52166 -3.89601 0
4.75641 -3.37215 0
5.62664 -2.97586 0
8.05289 -1.41111 0
9.39157 0.0173271 0
10.7879 2.33343 0
10.9026 2.52945 0
11.6622 3.64351 0
12.4887 5.58805 0
12.7208 6.40874 0
12.9521 10.0254 0
12.3129 18.2828 0
-11.893 18.5872 0
-12.8134 10.8321 0
-12.7949 9.40921 0
-12.485 6.73766 0
-11.665 4.74272 0
-10.8253 3.58851 0
-10.2027 2.79731 0
-9.24905 1.36673 0
-7.31196 -0.82 0
-5.2259 -2.26457 0
-3.11996 -3.29828 0
-0.118519 -4.17724 0
12.7152 12.0809 0
9.2793 11.6486 0
-12.7579 14.0705 0
-10.3328 14.2151 0
-0.439154 4.15197 0
0.979106 4.23923 0
-1.97805 6.1223 0
-1.34027 4.44302 0
4.69819 5.63992 0
5.10561 6.57748 0
0.34983 11.0485 0
0.166166 10.1472 0
-1.27676 8.24317 0
-2.61886 7.97146 0
6.18106 6.52138 0
5.43355 8.40678 0
4.46669 8.87743 0
4.42751 10.0511 0
2.50355 11.3373 0
2.50163 11.3356 0
-2.86193 11.3228 0
-4.40966 10.0231 0
-3.97984 9.22936 0
-4.8558 8.22023 0
1.23371 1.61294 0
-0.26457 0.624298 0
6.49396 2.68712 0
5.36672 1.10491 0
5.15434 3.59232 0
3.12888 4.36825 0
-9.37271 12.1876 0
-6.37217 11.532 0
3.12641 4.36784 0
1.62952 5.04943 0
-9.7067 8.12726 0
-8.27876 7.42209 0
-1.0308 -1.25929 0
-1.5017 -3.90278 0
1.82781 27.2868 0
1.89265 28.57 0
1.0009 -1.84203 0
1.14244 -0.426856 0
2.66239 8.77418 0
1.44533 7.66755 0
9.1142 11.0835 0
6.07417 10.6409 0
7.1839 21.6035 0
0.508593 12.6429 0
-2.95638 -0.33691 0
-3.70483 -3.03978 0
-4.64478 2.67739 0
-5.52175 1.57546 0
-5.88894 -1.86195 0
-4.79495 0.527649 0
0.427847 8.17933 0
-0.623511 7.70008 0
9.59801 6.64873 0
7.96447 5.86618 0
5.50349 -0.10085 0
7.14097 -2.10373 0
1.45458 -4.28432 0
1.53532 -2.28606 0
-6.49251 1.71814 0
-8.07824 -0.0972985 0
-5.76064 5.35754 0
-7.05563 4.23312 0
7.61008 2.60062 0
9.99257 0.901188 0
-12.6972 8.13516 0
-9.77056 8.25094 0
13.0441 8.47784 0
11.0173 8.34725 0
-3.03444 3.90192 0
-3.93007 2.64312 0
-9.74449 2.15271 0
-7.05507 3.70165 0
-3.87981 7.0307 0
-4.65762 5.22791 0
-7.20843 7.53043 0
-6.7817 6.60662 0
8.60038 7.98497 0
8.8554 8.59682 0
-0.850423 12.4609 0
-0.757312 11.7791 0
12.7193 12.1402 0
10.3506 13.1346 0
9.88065 15.813 0
2.36746 11.5896 0
8.2822 9.688 0
9.63858 10.6331 0
-7.82334 9.0637 0
-8.1541 9.97464 0
-2.30566 14.6645 0
1.10758 13.8665 0
-10.0732 14.8757 0
-4.4501 13.0686 0
9.6379 10.6355 0
12.7919 11.2761 0
-10.3919 16.5336 0
-12.3328 17.4333 0
-12.7631 12.0857 0
-9.63754 11.8248 0
10.8996 21.0352 0
9.14188 19.1975 0
8.89091 12.0889 0
6.84695 12.0384 0
-9.63704 11.8224 0
-7.79164 10.793 0
2.72161 14.5964 0
4.61828 13.3116 0
-4.91222 11.7828 0
-4.07289 10.8493 0
5.34894 13.1922 0
4.55613 11.5552 0
12.8709 14.0807 0
10.5413 13.8976 0
-2.9566 14.3466 0
-4.94919 14.1329 0
-2.2349 25.3733 0
0.188525 15.1669 0
-7.02602 12.325 0
-4.93391 13.5105 0
-12.7437 12.9536 0
-9.84571 13.0152 0
6.18195 17.4964 0
8.20584 16.123 0
-0.892864 13.9572 0
-0.569544 12.7332 0
-8.48576 21.175 0
-10.4572 22.105 0
0.68858 26.4263 0
2.54533 15.5684 0
-3.04609 16.7548 0
-7.96814 21.5952 0
-10.613 15.4924 0
-12.7362 15.4285 0
-6.74018 16.1068 0
-6.46413 14.7246 0
-6.85208 12.8526 0
-7.63227 14.1143 0
12.732 16.3921 0
10.4098 16.4401 0
-7.08197 23.3539 0
-7.97223 25.0774 0
6.5072 13.0236 0
5.35075 13.1905 0
9.5078 17.8178 0
8.06349 17.047 0
4.32488 14.2852 0
6.65864 17.2064 0
-2.05045 15.7449 0
-0.349103 16.027 0
8.21495 25.0761 0
6.78236 23.438 0
0.537829 15.1222 0
1.5916 16.0525 0
4.60266 24.5092 0
4.24729 16.6156 0
12.8116 15.243 0
10.2044 15.1608 0
-8.376 16.1577 0
-8.71713 15.1499 0
-9.68833 13.3367 0
-7.71935 13.7133 0
-8.40222 20.5398 0
-6.08661 17.6698 0
0.174898 26.5851 0
-0.136651 28.4636 0
2.11131 13.8223 0
2.94256 12.5101 0
-3.96822 16.1664 0
-4.12754 15.2684 0
-11.075 20.7588 0
-9.10069 19.9844 0
-0.069338 17.3706 0
-0.17124 17.3021 0
8.05185 14.3744 0
7.49397 15.1357 0
9.1188 12.7884 0
7.9232 13.9133 0
-8.10826 22.5337 0
-9.60199 23.5156 0
-2.54351 16.6343 0
-1.48885 17.8087 0
1.73274 17.107 0
3.50678 17.4441 0
6.60903 15.0942 0
6.27241 15.5663 0
-6.56902 19.5761 0
-5.92113 20.0222 0
-8.83044 17.7553 0
-6.51259 17.084 0
4.18161 16.3482 0
5.00842 15.406 0
-5.76432 22.6441 0
-3.51012 18.3583 0
7.01722 26.1915 0
5.91044 24.6759 0
-3.44945 27.4845 0
-2.54907 25.3964 0
8.05598 19.2327 0
7.36183 17.5215 0
9.97355 22.4596 0
7.6853 21.2357 0
3.9748 19.2076 0
5.55594 20.2689 0
1.15185 19.2181 0
3.5136 19.3481 0
0.43836 23.8166 0
-1.26581 24.0197 0
-1.60607 22.6495 0
-3.39699 20.2035 0
-6.33073 16.5086 0
-4.26146 15.2315 0
-5.7852 22.6348 0
-6.30712 21.25 0
4.38397 23.0126 0
5.64452 20.9919 0
-11.556 19.4881 0
-8.98918 18.6115 0
-8.82027 18.7735 0
-6.75923 18.6765 0
-0.92343 19.9414 0
-0.0145389 18.8572 0
3.01149 26.4209 0
1.52475 21.8132 0
4.04804 28.1509 0
3.57058 26.6041 0
-5.59373 26.5554 0
-4.88741 24.375 0
-5.32757 17.6615 0
-4.76409 18.5437 0
7.68526 19.908 0
6.61963 19.3927 0
1.6833 17.1601 0
2.0339 18.4388 0
9.63818 18.5499 0
11.8542 19.4185 0
10.4382 21.6904 0
7.88787 19.821 0
-3.99863 24.0316 0
-2.70978 21.5152 0
-1.90454 18.9796 0
-2.91561 19.1038 0
2.56224 22.4033 0
3.16746 22.1581 0
-5.1987 19.8001 0
-4.5868 20.4151 0
4.17026 18.5577 0
6.04195 18.253 0
-0.787463 22.0488 0
0.329297 22.6625 0
1.28625 25.1466 0
2.69205 25.3316 0
-1.38598 26.4602 0
-1.86706 28.0653 0
-0.334321 26.1448 0
-0.284352 24.3571 0
-7.28491 25.5636 0
-5.67038 23.8893 0
-1.29359 19.9313 0
-2.43619 21.5597 0
-4.81264 22.0343 0
-3.88244 22.5552 0
4.57433 24.5384 0
3.38011 24.3582 0
3.54332 20.9901 0
5.35481 21.225 0
6.52308 23.4576 0
5.44459 22.4322 0
9.39687 23.4841 0
7.39605 22.5808 0
-3.26767 24.4058 0
-2.09505 22.5279 0
6.10679 26.9625 0
4.77528 25.7081 0
1.54267 20.4305 0
3.15742 20.4592 0
-4.54792 27.0078 0
-3.57009 24.4577 0
0.982983 24.0424 0
2.45281 23.2272 0
-0.469924 20.6954 0
1.26953 20.7632 0
-6.3007 21.267 0
-4.70296 21.2479 0
CELLS 204 1356
5 0 160 161 4 5
6 3 2 6 7 8 9
6 3 9 144 145 4 161
8 14 15 156 5 4 145 12 13
8 7 16 178 17 147 18 19 8
7 144 9 8 19 20 21 10
6 153 22 23 24 124 125
8 25 26 13 12 11 124 24 127
7 14 13 26 27 28 29 168
6 17 30 31 32 146 147
7 18 33 148 149 152 20 19
5 20 152 153 125 21
7 22 37 163 174 175 40 23
5 24 23 40 126 127
5 26 25 192 193 27
7 28 27 193 170 171 47 173
9 48 49 50 34 148 33 146 32 186
5 36 35 128 129 52
6 36 52 53 162 163 37
6 38 54 55 139 130 131
7 40 175 132 133 59 41 126
6 42 41 59 196 197 43
7 44 43 197 184 185 195 45
8 49 64 65 177 66 134 51 50
7 51 134 135 136 53 52 129
6 53 136 137 55 54 162
8 55 137 70 165 71 233 138 139
7 57 56 140 231 141 142 58
7 59 133 58 142 143 60 196
6 61 60 143 77 198 199
5 65 80 81 176 177
6 67 200 201 208 69 68
7 69 208 209 216 164 165 70
5 71 225 264 265 233
8 73 72 236 291 333 237 241 215
5 91 92 93 210 211
8 77 76 210 93 189 154 155 198
5 6 2 1 96 97
5 16 7 6 97 98
5 30 17 178 179 99
4 187 101 48 186
5 64 49 48 101 102
5 80 65 64 102 103
6 82 176 81 104 105 83
4 83 105 190 191
5 120 121 164 216 217
5 123 214 254 255 122
5 92 91 90 109 110
5 92 110 188 189 93
5 79 78 95 112 113
5 63 62 79 113 114
5 194 195 185 63 114
4 172 173 47 116
5 15 14 168 169 118
5 0 5 156 157 119
5 181 160 0 119 180
4 31 30 99 100
4 81 80 103 104
5 292 293 284 248 249
4 95 94 111 112
5 171 182 183 116 47
6 120 204 205 298 224 121
5 122 242 243 282 123
5 124 11 10 21 125
6 126 41 42 192 25 127
5 128 34 50 51 129
6 130 203 56 57 39 131
5 132 39 57 58 133
5 134 66 67 68 135
6 136 135 68 69 70 137
8 138 207 167 247 202 203 130 139
5 140 73 215 230 231
6 142 141 75 76 77 143
5 144 10 11 12 145
4 146 33 18 147
5 148 34 128 35 149
7 150 221 226 227 74 151 240
7 152 149 35 36 37 22 153
5 154 94 95 78 155
4 156 15 118 157
4 356 357 222 223
6 160 181 1 2 3 161
5 162 54 38 174 163
6 164 121 224 225 71 165
7 166 391 273 388 389 387 337
4 168 29 117 169
6 170 44 45 46 182 171
5 172 117 29 28 173
6 174 38 131 39 132 175
6 176 82 200 67 66 177
4 178 16 98 179
4 180 96 1 181
4 182 46 115 183
6 184 61 199 62 63 185
5 186 32 31 100 187
5 188 111 94 154 189
5 190 106 85 84 191
6 192 42 43 44 170 193
5 194 115 46 45 195
5 196 60 61 184 197
6 198 155 78 79 62 199
6 200 82 83 191 84 201
6 202 72 73 140 56 203
4 204 234 235 205
6 206 261 87 266 267 245
5 208 201 84 85 209
6 210 76 75 74 227 211
6 167 213 274 239 246 247
6 214 123 282 283 259 281
5 216 209 85 106 217
5 218 89 88 108 219
5 220 109 90 226 221
5 222 358 359 320 223
5 224 298 299 264 225
5 226 90 91 211 227
5 228 288 289 229 268
6 230 151 74 75 141 231
7 232 229 289 207 138 233 265
5 234 278 279 86 235
7 236 212 270 302 252 290 291
6 253 248 284 308 309 335
6 240 151 230 215 241 258
5 242 220 221 150 243
6 244 277 312 313 307 269
6 246 212 236 72 202 247
5 248 253 300 301 249
8 294 295 271 239 274 275 304 354
6 252 302 303 362 363 315
4 254 218 219 255
5 256 280 281 259 257
6 258 241 237 257 259 283
4 260 107 87 261
5 319 238 374 375 318
7 264 299 296 297 306 232 265
6 356 223 320 321 267 266
6 268 229 232 306 307 313
5 270 212 246 239 271
5 272 316 317 388 273
6 274 213 288 228 251 275
7 276 384 385 401 364 365 336
5 278 260 261 206 279
6 280 89 218 254 214 281
6 282 243 150 240 258 283
5 284 293 340 341 308
5 286 250 158 159 287
5 288 213 167 207 289
7 290 350 285 311 332 333 291
5 292 338 339 340 293
6 328 377 329 330 370 371
6 296 86 279 206 245 297
6 298 205 235 86 296 299
4 300 262 263 301
5 302 270 271 295 303
6 304 275 251 312 277 305
7 306 297 245 267 321 269 307
7 308 341 285 350 351 366 309
7 310 88 89 280 256 332 311
5 312 251 228 268 313
5 314 334 404 405 382
6 316 394 395 384 276 317
5 318 398 399 392 319
8 320 359 352 353 369 244 269 321
5 322 390 391 166 323
5 324 368 369 353 325
5 326 343 294 354 355
7 377 328 400 372 250 286 376
6 330 329 238 319 392 393
5 332 256 257 237 333
6 334 262 300 253 335 404
5 336 365 386 387 389
5 338 108 88 310 339
6 340 339 310 311 285 341
7 303 295 294 343 342 380 362
5 344 158 250 372 373
5 346 159 158 344 347
4 348 378 379 349
5 350 290 252 315 351
6 352 323 166 337 325 353
7 354 304 305 368 324 327 355
5 356 266 87 107 357
5 358 322 323 352 359
6 360 349 379 314 382 383
6 362 380 381 361 331 363
7 364 345 403 396 397 386 365
6 366 351 315 363 331 367
5 368 305 277 244 369
5 370 402 403 345 371
5 372 400 401 385 373
5 374 376 286 287 375
5 376 374 238 329 377
6 378 263 262 334 314 379
7 380 342 402 370 330 393 381
6 382 405 367 331 361 383
6 384 395 347 344 373 385
7 386 397 327 324 325 337 387
5 388 317 276 336 389
4 390 272 273 391
7 392 399 360 383 361 381 393
4 394 346 347 395
5 396 326 355 327 397
5 398 348 349 360 399
6 400 328 371 345 364 401
6 402 342 343 326 396 403
6 404 335 309 366 367 405
CELL_TYPES 204
7
7
7
7
7
7
7
7
7
7
7
7
7
7
7
7
7
7
7
7
7
7
7
7
7
7
7
7
7
7
7
7
7
7
7
7
7
7
7
7
7
7
7
7
7
7
7
7
7
7
7
7
7
7
7
7
7
7
7
7
7
7
7
7
7
7
7
7
7
7
7
7
7
7
7
7
7
7
7
7
7
7
7
7
7
7
7
7
7
7
7
7
7
7
7
7
7
7
7
7
7
7
7
7
7
7
7
7
7
7
7
7
7
7
7
7
7
7
7
7
7
7
7
7
7
7
7
7
7
7
7
7
7
7
7
7
7
7
7
7
7
7
7
7
7
7
7
7
7
7
7
7
7
7
7
7
7
7
7
7
7
7
7
7
7
7
7
7
7
7
7
7
7
7
7
7
7
7
7
7
7
7
7
7
7
7
7
7
7
7
7
7
7
7
7
7
7
7
7
7
7
7
7
7
CELL_DATA 204
SCALARS cell_division_count float
LOOKUP_TABLE default
1
0
1
0
0
0
1
0
0
1
1
1
1
1
1
1
0
1
1
1
1
1
1
0
1
1
1
1
1
1
1
1
2
4
3
1
1
0
0
1
1
0
0
0
1
2
3
0
1
0
0
1
1
1
1
1
0
0
3
0
1
2
3
1
1
1
1
1
1
1
2
2
1
1
1
1
2
1
1
1
3
1
1
2
8
1
1
1
1
1
1
1
1
1
1
1
1
1
1
1
1
1
2
3
5
2
1
3
5
2
2
2
5
3
2
4
2
3
5
5
6
3
3
6
3
4
6
9
3
5
4
4
6
5
6
6
5
4
5
10
5
5
5
7
4
4
6
4
9
5
3
4
6
6
6
7
6
6
10
6
7
7
5
7
8
8
10
6
8
8
4
7
8
9
5
7
7
7
8
3
5
10
10
10
9
7
10
10
6
8
7
10
10
10
8
8
5
10
6
10
7
10
10
10
SCALARS cell_time float
LOOKUP_TABLE default
1101
2.22229e+13
1121
4.48239e+13
2.67348e+11
1.25633e+10
1131
2.68224e+09
9.19769e+11
1121
1121
1111
1081
1131
1051
1091
1.22711e+06
1131
1101
1131
1131
1031
1071
24913.4
1131
1131
1131
1131
1131
1021
1081
1021
981
721
871
971
1111
1.00108e+18
2.94533e+15
1081
1071
106213
2475.76
1187.34
1061
961
761
1178.01
1071
3829.01
1446.18
1051
1091
1101
1111
1081
1.12104e+13
22296.3
551
3167.96
1081
1001
821
1131
1131
1131
1131
1131
1131
1131
1011
891
1131
1121
1121
1121
951
1111
1111
1111
251
1101
1101
961
81
1101
1091
1091
1081
1081
1081
1081
1081
1071
1071
1071
1061
1051
1051
1031
1021
1021
1011
881
701
981
971
821
601
961
961
961
251
541
951
571
891
881
611
571
461
841
821
451
821
541
551
241
761
611
741
741
161
551
441
471
671
451
641
91
611
611
601
301
591
571
341
321
181
551
541
541
541
531
471
271
461
451
1
61
51
261
81
191
261
151
81
341
331
91
321
301
301
171
281
131
271
261
261
251
251
111
121
61
201
191
31
51
161
151
131
121
111
91
91
81
81
81
61
61
51
51
31
1
SCALARS cell_area float
LOOKUP_TABLE default
3.24407
3.30186
3.29428
3.35866
3.35287
3.34457
3.32647
3.37831
3.35064
3.2822
3.33765
3.28665
3.38123
3.31872
3.3079
3.33208
3.40182
3.28744
3.34108
3.38521
3.3872
3.34088
3.34166
3.37339
3.35837
3.37114
3.42579
3.3958
3.38796
3.32991
3.25146
3.30133
3.34291
3.31782
3.42565
3.25414
3.35026
3.2558
3.26456
3.25205
3.24223
3.2837
3.26572
3.28515
3.2258
3.29657
3.26851
3.26963
3.26534
3.25438
3.27375
3.27883
3.22065
3.26094
3.24806
3.24506
3.21289
3.22157
3.27285
3.20188
3.2506
3.30943
3.28153
3.28215
3.33868
3.29046
3.38413
3.34539
3.28495
3.35693
3.43008
3.33992
3.3535
3.28809
3.24703
3.27759
3.33713
3.34951
3.23678
3.22572
3.23117
3.26075
3.32893
3.32189
3.31842
3.22654
3.2994
3.25631
3.36508
3.29059
3.22807
3.20648
3.22043
3.30654
3.25629
3.25231
3.26463
3.32616
3.26828
3.30151
3.29343
3.26954
3.38092
3.24496
3.2953
3.25069
3.3269
3.3619
3.288
3.28361
3.27219
3.27772
3.28344
3.284
3.25316
3.29359
3.3486
3.38529
3.27105
3.39434
3.27766
3.34298
3.28554
3.32078
3.37796
3.26055
3.39671
3.33463
3.22525
3.26728
3.32108
3.2211
3.28339
3.35657
3.31288
3.32957
3.32769
3.27757
3.3369
3.30138
3.26556
3.27985
3.31206
3.25748
3.27185
3.3275
3.36279
3.27866
3.29191
3.31099
3.29826
3.21605
3.32011
3.32478
3.36526
3.34943
3.33063
3.28077
3.32441
3.30474
3.29067
3.38074
3.28542
3.28918
3.30516
3.29193
3.29925
3.30495
3.23813
3.27043
3.28441
3.30916
3.36108
3.22326
3.25786
3.24154
3.31349
3.31778
3.34101
3.25554
3.29213
3.30001
3.33132
3.32707
3.32378
3.28649
3.27289
3.23256
3.28191
3.25129
3.28997
3.34917
3.28602
3.25901
3.33251
3.25647
3.24318
3.33742
3.2281
3.28609
3.28285
3.28145
3.31309
151
SCALARS cell_perimeter float
LOOKUP_TABLE default
6.9261
6.92113
6.99784
7.14165
7.0872
6.84454
7.05004
7.46975
6.90705
6.95618
7.36796
6.98621
6.83273
7.15978
7.00241
6.77264
7.14802
6.95927
6.98219
7.2191
6.90925
7.1449
7.16526
7.42322
7.45015
6.90631
8.15463
6.93793
6.82939
7.01378
6.96129
6.9477
8.23719
7.0266
7.03202
7.21426
7.69123
7.48553
7.77829
7.59084
8.21361
8.56131
8.08308
7.65239
7.35325
8.76772
7.4412
7.41551
7.90458
7.56008
7.96979
8.28093
7.74146
8.0322
7.64855
7.19854
7.40489
7.36541
7.3149
7.30717
7.67857
8.69376
7.89234
7.03152
7.02922
7.16618
6.98115
6.99551
7.0887
6.89259
8.08427
6.99422
7.08158
7.11228
7.25218
7.1854
7.75418
7.16558
6.93801
7.84457
7.61664
6.78567
7.01646
8.03737
7.04132
7.93774
6.81487
7.93172
6.96711
6.9782
7.75264
7.30657
7.60958
7.04715
7.88047
7.84376
7.27948
6.88628
8.11267
7.09042
7.09779
6.89191
7.23696
7.63866
6.90166
6.98662
6.81126
7.06396
7.09763
8.17773
7.74723
8.09882
8.2047
7.13637
7.21025
7.04669
6.95598
7.85473
7.64435
6.8644
7.14858
7.11416
8.30556
7.17167
7.29228
7.23256
7.08409
6.9793
7.3728
6.9279
7.22701
7.46393
7.3293
7.43316
6.97678
7.20545
7.05155
7.31309
6.83238
7.1942
7.63164
6.77831
7.44395
7.18919
7.18648
7.14235
7.59011
7.66878
6.80097
7.07746
7.05844
7.29843
7.01912
7.13847
6.9204
6.80802
7.5197
6.99994
7.17825
7.44487
7.7331
7.23846
7.58787
7.13506
6.97667
7.04873
7.33317
7.33723
6.92186
6.95987
7.97175
7.5163
7.18047
6.8597
7.15439
7.4998
7.0983
6.89608
7.39803
7.47305
8.20384
6.80037
7.09734
6.85596
6.827
7.19899
6.9522
6.89833
7.12661
6.9681
7.86215
7.17546
6.95767
6.81141
7.13648
6.89169
7.4085
7.47714
7.3267
6.96942
7.71964
6.92068
6.96063
78
SCALARS cell_frequency_modifier float
LOOKUP_TABLE default
1.23359e+17
5.7521e+13
1.73308e+13
2.10707e+13
3.74666e+12
2.06249e+11
2.52755e+08
1.25256e+10
3.68269e+12
5.54117e+12
1.09445e+10
8.4697e+09
2.70974e+06
8.47394e+07
5.3839e+10
6.48063e+11
4.80734e+09
4.42889e+07
1.31481e+06
10544.1
2.23249e+06
3.70116e+07
8.68691e+08
8.03975e+07
1.34028e+06
54425.4
5212.12
13310.5
479100
2.00648e+06
1.78414e+10
371000
13928.6
1849.37
98.9687
1.79295e+07
414861
3.59944e+18
5.38668e+17
2.88799e+16
2.5163e+13
4.11484e+10
4.41306e+11
5.21229e+07
3.42357e+08
8009.36
13619.3
5.66437e+06
5.27879e+07
4.5124e+10
4.5414e+10
6.98188e+10
1.45706e+16
4.2842e+17
7.25315e+18
10000
5.99699e+15
5.71715e+10
779.581
5.8176e+09
1.19529e+15
1643.9
1891.36
7.36447e+10
3.09703e+08
2.29678e+08
7809.32
112004
5.93119e+06
58248.1
1283.19
1552.36
91478.4
1.01355e+12
2.02207e+13
1.13912e+10
2651.81
6.49438e+07
1.37778e+09
4.2075e+18
352.626
2.09803e+17
209312
4624.23
0.753894
3.03339e+17
9.7477e+10
3.2288e+16
119944
1.29381e+07
2.8805e+17
10000
2.20057e+14
1.65232e+08
1.80482e+14
3.25213e+08
2.86454e+07
4.0028e+09
1.08799e+13
2.83582e+07
3.74688e+07
1.80546e+08
1030.96
71706.2
20.3355
1.46812e+07
36523.5
122.151
318.557
70770.6
1382.08
51758.1
5.78664
2667.2
2.38588e+06
428.009
6990.41
694.6
16930.5
18.0069
16.6346
755.566
3384.45
16.7267
175.496
130.189
8.99568
4.16316
3584.78
8816.23
216.161
1705.29
3.03853
117.347
4.87116
92.681
49.3772
13.1149
58.7238
0.817678
5187.58
218.893
755.21
360.093
164.872
594.013
9.43885
20.4498
1.11412
60.0172
354.359
103.364
13.6031
14.5825
11.7131
1.95532
9.75373
357.817
0.906462
0.779281
1.17346
1.93083
2.06325
5.25335
5.53658
1.04858
0.84946
58.4393
127.533
137.573
12.8709
5.67622
2.08479
117.022
161.709
102.566
7.87471
1.33043
3.25097
739.466
1.82142
0.869943
1.17815
0.841783
2.05892
15.7286
56.2863
100.001
4.62407
104.068
1.17531
0.627383
2.47264
106.509
1.08297
103.387
103.154
0.479051
137.78
5.0198
2.62785
4.06931
1.7734
1
SCALARS cell_area_modifier float
LOOKUP_TABLE default
100
0.750462
0.920635
0.346712
0.362177
0.39001
0.513274
0.321967
0.365437
2.68874
0.426919
1.34884
0.314485
0.579173
0.686971
0.455668
0.29399
1.30547
0.405594
0.309687
0.305034
0.413863
0.401583
0.327156
0.349699
0.329813
0.289793
0.29831
0.302759
0.471545
100
0.794521
0.397649
0.596182
0.291876
100
0.368756
100
100
100
100
2.0199
100
1.68465
100
0.880694
100
100
100
100
19.3333
5.01235
100
100
100
100
100
100
406
100
100
0.664484
3.35537
2.87943
0.422477
1.12465
0.312068
0.386299
1.75758
0.352737
0.287739
0.418126
0.358974
1.22659
100
9.90244
0.43609
0.372136
100
100
100
100
0.482759
0.547908
0.587554
100
0.826884
100
0.33526
1.09434
100
100
100
0.698795
100
100
100
0.519846
100
0.764595
0.964371
100
0.31694
100
0.900222
100
0.506866
0.34089
1.2648
2.12565
100
6.65574
2.24309
1.92417
100
0.941995
0.382658
0.307343
100
0.300518
7.96078
0.393792
1.55556
0.563107
0.32454
100
0.296134
0.445664
100
100
0.555404
100
2.37427
0.355828
0.633385
0.477086
0.488568
13.0968
0.440825
0.779271
100
4.46154
0.643423
100
100
0.494519
0.338052
5.71831
1.03836
0.653784
0.861996
100
0.571027
0.526589
0.332514
0.375578
0.466131
4.0198
0.533509
0.736842
1.06562
0.319434
1.61753
1.19062
0.711033
1.01247
0.844075
0.723708
100
100
1.8371
0.675541
0.343776
100
100
100
0.614221
0.605067
0.409687
100
0.987835
0.810379
0.46084
0.500617
0.540613
1.39519
36.9091
100
3.09924
100
1.1567
0.379085
1.49815
100
0.45061
100
100
0.431456
100
1.44484
2.52174
3.65766
0.623656
1
SCALARS cell_Gaussian_modifier float
LOOKUP_TABLE default
1.23359e+15
7.66474e+13
1.88248e+13
6.07728e+13
1.03448e+13
5.28831e+11
4.92436e+08
3.89034e+10
1.00775e+13
2.06088e+12
2.5636e+10
6.27926e+09
8.61644e+06
1.46311e+08
7.83716e+10
1.42223e+12
1.63521e+10
3.39258e+07
3.2417e+06
34047.6
7.31884e+06
8.94296e+07
2.16317e+09
2.45747e+08
3.83266e+06
165019
17985.7
44619.8
1.58245e+06
4.25513e+06
1.78414e+08
466948
35027.2
3102.02
339.077
179295
1.12503e+06
3.59944e+16
5.38668e+15
2.88799e+14
2.5163e+11
2.03715e+10
4.41306e+09
3.09399e+07
3.42357e+06
9094.38
136.193
56643.7
527879
4.5124e+08
2.349e+09
1.39294e+10
1.45706e+14
4.2842e+15
7.25315e+16
100
5.99699e+13
5.71715e+08
1.92015
5.8176e+07
1.19529e+13
2473.95
563.68
2.55761e+10
7.33066e+08
2.04221e+08
25024.4
289940
3.37464e+06
165132
4459.55
3712.65
254833
8.26316e+11
2.02207e+11
1.15034e+09
6080.87
1.74516e+08
1.37778e+07
4.2075e+16
3.52626
2.09803e+15
433574
8439.79
1.2831
3.03339e+15
1.17885e+11
3.2288e+14
357763
1.18227e+07
2.8805e+15
100
2.20057e+12
2.36452e+08
1.80482e+12
3.25213e+06
286454
7.69997e+09
1.08799e+11
3.70892e+07
3.88531e+07
1.80546e+06
3252.84
717.062
22.5894
146812
72057.4
358.331
251.864
33293.6
13.8208
7776.47
2.57976
1386.15
23858.8
454.364
18268.1
2260.01
169.305
59.9194
2.08957
1918.69
2175.71
29.7044
540.752
1.30189
30.377
9.34148
35.8478
88.1623
389.197
17.0529
1.27977
329.785
7.69068
194.265
101.065
1.00138
133.213
1.04929
51.8758
49.0623
1173.74
3.60093
1.64872
1201.19
27.9213
3.5762
1.07296
91.7997
411.091
1.03364
23.8222
27.6924
35.2259
5.20616
20.9249
89.0136
1.69906
1.0576
1.1012
6.04454
1.27556
4.4123
7.78666
1.03566
1.00638
80.7499
1.27533
1.37573
7.00606
8.40248
6.06436
1.17022
1.61709
1.02566
12.8206
2.19882
7.93525
7.39466
1.84385
1.0735
2.55652
1.68149
3.80849
11.2734
1.525
1.00001
1.492
1.04068
1.01609
1.65499
1.65046
1.06509
2.40333
1.03387
1.03154
1.11031
1.3778
3.47429
1.04208
1.11254
2.84355
1
