# vtk DataFile Version 3.0
2D-vertex
ASCII
DATASET UNSTRUCTURED_GRID

POINTS 796 float
0.399736 -3.59285 0
2.8499 -3.42181 0
3.2529 -2.47828 0
2.2418 -1.39421 0
-0.0221564 -1.21529 0
-0.761333 -2.69473 0
3.78067 -2.45219 0
4.36659 -1.60691 0
3.45564 -0.0762159 0
2.40522 -0.37502 0
1.24793 0.901976 0
-0.434908 1.40154 0
-1.21544 0.138062 0
-1.37063 0.101916 0
-1.91056 -1.56071 0
-1.41217 -2.45367 0
4.9361 -1.77282 0
5.75963 -0.905159 0
3.94585 0.660441 0
3.67474 0.597589 0
2.81015 1.57111 0
1.74268 1.49911 0
1.14051 5.13002 0
0.278637 5.11664 0
-0.563439 3.25553 0
-1.78521 2.36318 0
-1.72465 0.456728 0
-3.01846 0.181894 0
-3.54369 -0.845527 0
-3.25064 -1.56092 0
6.82766 -0.909005 0
7.4586 -0.195452 0
7.30104 1.11992 0
5.09872 2.32494 0
5.5742 2.89696 0
3.24582 4.26509 0
2.50102 5.55953 0
1.61063 5.72967 0
0.713711 8.90288 0
-0.883246 8.97011 0
-0.588498 5.94106 0
-2.10463 5.02079 0
-3.16873 3.49045 0
-4.12613 3.5339 0
-4.87729 2.13123 0
-6.28892 1.83657 0
-6.58662 0.7727 0
-5.08718 -0.595592 0
7.73019 1.73833 0
7.40089 2.78526 0
6.65251 3.21794 0
5.94384 5.28844 0
3.60752 6.51507 0
3.54748 7.37874 0
2.11255 9.00653 0
2.65456 9.70496 0
-1.85304 10.3437 0
-1.76757 9.45093 0
-3.0096 8.1385 0
-2.69571 5.99327 0
-4.33126 6.31948 0
-5.72099 5.01541 0
-7.65126 3.53907 0
-7.51177 3.00446 0
8.32251 3.18323 0
8.32249 3.18573 0
6.8602 5.25399 0
7.30857 6.44796 0
6.05691 7.73887 0
6.27468 8.41442 0
5.50419 9.43807 0
5.25034 9.93395 0
-2.58514 12.6361 0
-2.82953 12.3283 0
-6.04141 9.47465 0
-5.3694 8.67774 0
-6.0958 7.31604 0
-6.01163 7.14755 0
-8.63359 4.05156 0
-8.4855 3.69906 0
9.86011 3.47395 0
10.1873 4.4231 0
9.3936 5.41501 0
10.5681 5.82767 0
10.2796 7.3537 0
10.4758 8.06166 0
9.73319 12.7164 0
10.7628 14.8022 0
-9.65417 14.5332 0
-9.65271 14.5282 0
-10.021 8.64599 0
-9.72793 8.12443 0
-10.0705 7.49215 0
-9.3315 6.39573 0
-10.1491 5.1424 0
-9.69237 4.16213 0
3.75695 -5.28494 0
4.96296 -4.74154 0
5.79956 -4.33948 0
8.15441 -2.75236 0
9.44968 -1.31992 0
10.7862 1.01317 0
10.8786 1.1809 0
11.5801 2.24957 0
12.3702 4.17579 0
12.5815 4.95972 0
12.7695 8.479 0
13.3559 15.2013 0
-13.2161 14.9993 0
-12.6233 8.60471 0
-12.5385 7.32941 0
-12.1673 4.7908 0
-11.2958 2.85112 0
-10.4376 1.7529 0
-9.8352 1.03293 0
-8.93336 -0.287133 0
-7.00708 -2.42314 0
-4.93656 -3.82373 0
-2.83928 -4.81921 0
0.160606 -5.63992 0
12.6363 9.97811 0
8.56541 10.1867 0
-12.9002 11.0717 0
-10.0126 11.9033 0
-0.313474 2.91488 0
0.983107 3.00695 0
-1.84343 4.98673 0
-1.10074 3.25059 0
4.50688 4.45811 0
4.91557 5.37623 0
0.413042 10.4951 0
0.185662 9.4069 0
-1.10128 7.29152 0
-2.29114 7.00297 0
5.94289 5.29074 0
5.12129 7.26771 0
4.14459 7.77713 0
4.16034 9.12476 0
2.14824 10.7122 0
2.14619 10.7108 0
-2.37008 10.5854 0
-3.9314 8.85498 0
-3.48677 8.15667 0
-4.45393 6.90701 0
1.36463 0.257589 0
-0.0870912 -0.732372 0
6.47727 1.3703 0
5.37955 -0.162655 0
5.09671 2.32642 0
3.07724 3.1488 0
-8.89235 10.2754 0
-5.85473 10.1618 0
3.07474 3.14888 0
1.64438 3.83478 0
-9.34451 6.33655 0
-7.93439 5.72513 0
-0.79174 -2.71013 0
-1.2135 -5.39599 0
14.0543 32.7205 0
15.9414 33.349 0
1.21159 -3.25235 0
1.32528 -1.79639 0
2.53675 7.76915 0
1.35821 6.74942 0
8.38327 9.70755 0
5.50446 9.44057 0
9.18629 20.4455 0
0.0224123 12.4107 0
-2.69447 -1.81868 0
-3.40934 -4.57721 0
-4.31015 1.2084 0
-5.20814 0.0281763 0
-5.57969 -3.44363 0
-4.50099 -0.991535 0
0.424352 7.23109 0
-0.493556 6.80331 0
9.36283 5.27535 0
7.76736 4.49147 0
5.57251 -1.43695 0
7.28803 -3.43941 0
1.71333 -5.71362 0
1.75442 -3.68589 0
-6.15639 0.151901 0
-7.7586 -1.72854 0
-5.32475 3.91541 0
-6.65398 2.67594 0
7.56522 1.24961 0
10.0248 -0.43958 0
-12.4142 6.17802 0
-9.35531 6.35677 0
12.8742 7.00053 0
10.7752 6.83321 0
-2.74693 2.54892 0
-3.66332 1.19524 0
-9.41715 0.46612 0
-6.64314 2.10496 0
-3.52505 5.80498 0
-4.29108 3.8305 0
-6.76595 5.90843 0
-6.34743 5.10781 0
8.28594 6.60907 0
8.49618 7.09055 0
-0.839405 12.2672 0
-0.631177 11.187 0
12.6409 9.98709 0
10.0039 11.3043 0
9.9084 13.6058 0
1.85729 11.2532 0
7.90119 8.35926 0
9.13088 9.06377 0
-7.24289 7.41914 0
-7.58236 8.17564 0
-2.29718 14.5545 0
0.754108 13.6958 0
-9.94553 12.4062 0
-4.06735 12.1839 0
9.12957 9.06592 0
12.6513 9.5118 0
-10.7344 13.569 0
-13.2734 13.9955 0
-12.6753 9.5845 0
-9.15248 9.842 0
12.8668 17.9562 0
10.2191 16.3281 0
8.24508 10.6298 0
6.11497 10.8295 0
-9.15252 9.83948 0
-7.26663 9.13951 0
2.25023 14.2053 0
3.99914 12.5689 0
-4.37762 10.6204 0
-3.59999 9.94373 0
4.7367 12.3078 0
3.81716 10.7928 0
13.0061 11.6706 0
10.2175 11.8447 0
-2.91221 14.1449 0
-4.52936 13.1481 0
-13.0329 27.3146 0
0.00831827 15.2776 0
-6.45353 10.7221 0
-4.40573 12.4179 0
-12.7535 10.2968 0
-9.35331 10.8827 0
5.942 16.3283 0
8.07768 14.4563 0
-1.14279 14.0629 0
-0.665972 12.4657 0
-10.4295 17.8288 0
-13.5248 16.9729 0
11.5191 39.272 0
2.18807 15.2661 0
-3.03902 16.7375 0
-10.3542 18.221 0
-10.6897 12.8875 0
-13.129 12.1059 0
-6.56004 14.494 0
-6.00995 13.3775 0
-6.32785 11.4456 0
-7.15633 12.392 0
13.2659 13.3729 0
10.7016 14.1539 0
-11.196 19.4227 0
-14.057 19.5696 0
5.91174 11.921 0
4.73765 12.3055 0
10.1303 15.481 0
8.1418 15.0488 0
3.83597 13.6863 0
6.53944 15.7368 0
-2.10243 15.9465 0
-0.550204 16.2578 0
14.2395 20.8147 0
11.5969 21.7173 0
0.194756 15.2392 0
1.16195 15.9509 0
12.265 23.5317 0
3.85379 15.8133 0
13.1176 12.5074 0
10.0337 13.0847 0
-8.40857 14.0082 0
-8.44478 13.1421 0
-9.25177 11.2141 0
-7.16256 12.023 0
-10.0041 17.4064 0
-6.18945 16.2403 0
9.17029 42.0258 0
9.77208 43.9518 0
1.6372 13.576 0
2.4143 12.0418 0
-3.92749 15.7769 0
-3.84921 14.6307 0
-13.3473 16.1499 0
-10.2137 16.7612 0
-0.23032 17.7344 0
-0.348231 17.6579 0
7.59906 12.8187 0
7.1874 13.7197 0
8.49241 11.1438 0
7.4572 12.5338 0
-11.1692 18.7982 0
-13.7594 17.866 0
-2.6619 16.7267 0
-1.69595 18.1127 0
1.46045 17.0276 0
3.16618 17.0036 0
6.1473 13.891 0
5.89036 14.4551 0
-7.47313 17.6131 0
-7.25741 18.015 0
-9.1086 15.2584 0
-6.40043 15.4581 0
3.83421 15.768 0
4.57438 14.5461 0
-10.5995 21.3344 0
-3.86668 18.037 0
14.7196 21.9736 0
12.4852 22.7259 0
-15.8826 26.8217 0
-13.6257 26.632 0
8.39678 16.8593 0
7.48907 15.8412 0
12.8938 18.4191 0
9.32797 19.6272 0
3.9731 18.2614 0
5.81892 18.9419 0
1.19435 19.5706 0
3.34775 18.7165 0
-0.827118 25.4172 0
-3.47081 24.161 0
-3.14767 22.4819 0
-4.50614 19.9042 0
-6.18671 15.1585 0
-4.03515 14.5268 0
-9.80387 20.1858 0
-8.26779 19.0453 0
7.81141 23.518 0
7.18404 20.7099 0
-13.2278 15.3612 0
-9.47444 15.8065 0
-9.4439 15.8831 0
-7.23919 16.8559 0
-0.2003 19.7982 0
0.0329717 19.4985 0
13.8892 31.5745 0
2.21232 22.8387 0
16.5266 28.485 0
14.5508 28.4375 0
-14.9392 21.8015 0
-12.2733 22.2438 0
-5.37015 16.5782 0
-5.177 17.7394 0
7.92713 17.6397 0
6.74144 17.6057 0
1.26503 17.3461 0
1.86362 18.4036 0
10.3798 15.9609 0
13.2657 16.182 0
12.8286 18.1247 0
8.40549 17.1737 0
-11.8108 23.1652 0
-4.48033 20.1673 0
-2.14987 19.0804 0
-3.51575 18.9736 0
3.75346 23.2479 0
4.36955 22.5936 0
-5.80495 18.3169 0
-5.65492 19.3795 0
3.97875 17.7941 0
5.9697 16.8423 0
-1.86218 22.2934 0
-0.240934 23.5956 0
1.99782 28.4176 0
11.8139 31.1518 0
-8.16418 41.6696 0
-9.38109 43.14 0
-2.73341 43.4522 0
-2.4374 24.9901 0
-14.2835 20.0888 0
-12.0305 21.7015 0
-1.76524 19.7168 0
-3.52 20.7676 0
-7.44164 21.0789 0
-5.90393 21.2963 0
13.1253 27.015 0
11.4425 29.8766 0
4.98435 20.991 0
6.65358 21.3671 0
11.5651 21.8111 0
8.62691 22.4468 0
13.3519 19.2602 0
11.284 21.2607 0
-13.2492 25.6323 0
-3.72304 21.9524 0
16.1445 26.4072 0
14.2432 27.3266 0
2.32675 20.6318 0
3.52265 19.8453 0
-15.4866 23.5311 0
-13.3381 24.4776 0
-1.64784 27.0924 0
4.11197 24.3949 0
0.312251 21.1044 0
1.92345 21.5238 0
-8.25819 19.1311 0
-6.94088 20.0083 0
8.37257 18.742 0
6.83018 19.552 0
-1.42196 21.5024 0
-2.12352 20.4339 0
12.8263 18.1347 0
8.4485 18.5153 0
-2.52176 24.6544 0
-1.31503 23.3927 0
-5.79677 21.832 0
-4.77852 22.3768 0
-4.44488 24.4479 0
-5.05823 23.744 0
-14.0621 19.5783 0
-10.5548 20.9905 0
5.54022 24.5019 0
6.1598 23.4258 0
-0.163776 29.8522 0
3.6326 42.5398 0
-8.20505 22.081 0
-7.83466 23.1287 0
1.65929 44.1171 0
1.40643 45.9259 0
-9.80103 28.5482 0
-7.34209 30.489 0
9.76933 20.9555 0
8.51473 22.0944 0
15.1493 23.1096 0
12.7282 23.9711 0
5.90193 22.866 0
6.79227 21.7476 0
2.3622 21.171 0
4.14994 21.8068 0
3.49431 24.9836 0
5.39008 28.4677 0
4.81721 20.3097 0
5.90825 19.2684 0
1.77581 23.2574 0
2.03958 24.4588 0
13.0447 18.7671 0
9.7487 20.7809 0
-4.99363 36.7457 0
-3.80685 31.9417 0
-13.3789 29.1231 0
-15.7806 29.2715 0
-0.0878756 21.595 0
0.386681 22.9065 0
-7.20871 23.2505 0
-6.86013 23.96 0
-9.77616 20.5728 0
-7.44152 21.0764 0
8.98035 25.9568 0
10.0102 24.23 0
-15.8589 25.4336 0
-13.5079 25.3389 0
-7.24942 24.767 0
-7.1406 26.326 0
4.64083 32.2344 0
8.64251 31.8943 0
-13.2158 31.2339 0
-9.3498 29.4827 0
8.78313 26.4694 0
5.90645 27.4929 0
2.52428 27.9165 0
1.50524 26.2473 0
-4.58189 26.2083 0
-4.45203 26.2758 0
10.371 41.4259 0
11.5953 42.694 0
0.0391091 24.5876 0
1.36593 25.0274 0
-9.36804 24.1105 0
-9.47663 24.5944 0
5.30535 36.5328 0
4.23973 40.8166 0
-3.08036 25.8707 0
-2.45503 27.0051 0
14.2401 28.8269 0
12.1745 28.7381 0
-5.71684 43.3671 0
-6.21945 45.1118 0
-7.16704 41.8795 0
-6.16321 35.6904 0
10.2858 23.7473 0
9.89826 22.7397 0
-10.3536 26.7498 0
-8.93873 25.1143 0
12.9127 26.3708 0
10.5996 25.7093 0
-0.951293 37.4872 0
-0.337977 31.6556 0
-9.84242 22.1097 0
-10.2737 23.1777 0
16.4809 30.1784 0
14.6508 29.9276 0
15.5263 24.1124 0
13.2512 25.1593 0
12.8487 37.0934 0
10.4101 34.3253 0
-1.392 29.8953 0
-1.18169 28.0691 0
-11.3548 37.3239 0
-13.4171 37.9104 0
3.56919 25.8606 0
2.34156 26.6491 0
7.91138 30.5996 0
7.32746 27.38 0
6.10689 25.1565 0
5.11205 26.0355 0
-5.55215 29.4259 0
-4.83975 30.0686 0
8.25964 24.301 0
8.04811 24.7448 0
6.12077 30.3468 0
6.34096 32.7532 0
-13.2443 29.3356 0
-10.4209 28.4869 0
12.3714 39.222 0
13.685 40.5493 0
-8.52569 27.4858 0
-5.49081 28.7404 0
-9.98415 38.7025 0
-8.73204 34.6359 0
3.35414 31.6008 0
2.70424 32.162 0
-15.8384 28.0823 0
-13.2294 27.845 0
-15.6384 30.8362 0
-13.8156 30.5646 0
-0.549529 39.9214 0
1.46059 40.0633 0
[...]
CELL_DATA 1194
SCALARS current_Length float
LOOKUP_TABLE default
0.880369
1.02599
1.48241
1.4674
1.65383
1.46789
0.528413
1.02849
1.78125
1.09209
1.03221
1.21779
1.75542
1.48513
0.487261
0.159342
1.7481
1.02263
0.0340851
0.593177
0.563754
0.834127
0.278294
0.708532
1.30202
1.06989
0.775467
1.05952
0.861979
2.04275
0.42252
0.537322
1.90742
0.501217
1.32268
1.15389
0.773088
0.825264
1.06804
0.952491
1.32477
0.860972
2.02476
0.00249758
1.27575
1.5998
1.49342
0.906496
0.761966
1.05053
0.729983
0.867461
1.19649
1.57658
1.86393
0.9795
0.958385
1.59114
1.20113
1.44205
1.10474
0.635389
0.707381
0.515808
1.09751
0.864455
1.12507
2.18842
1.73435
1.46198
0.865756
1.08351
1.40267
0.884073
1.12699
0.896871
1.00659
1.80696
1.08774
1.13802
0.850445
1.90576
0.339379
0.633216
0.552504
0.571078
1.00387
0.00249989
1.41884
0.00248827
1.27538
1.79809
0.717818
0.709774
1.28122
1.6137
0.00251596
1.67079
0.393028
0.570726
1.24621
1.04244
0.47752
1.54333
0.188347
0.600202
1.45066
0.382347
0.849437
1.5644
1.00396
1.18578
0.990563
1.24483
1.02666
1.62744
0.734648
0.984204
1.24485
0.475316
1.32041
0.00519792
1.3085
0.886305
0.598251
2.14619
0.719122
1.32222
2.32586
0.0456583
1.08145
1.06454
2.07219
1.32277
2.5766
0.928198
2.70801
1.10573
2.27118
2.28666
1.64018
3.14089
0.191474
3.24697
1.27835
2.11127
2.19684
0.811917
2.19257
2.06169
2.33139
0.466549
2.62366
3.59228
1.0592
2.60261
1.27812
2.47333
1.15808
2.0486
2.07113
1.39378
2.75647
0.938723
3.04717
0.704296
2.57496
2.65065
1.75466
2.82181
0.619296
2.76269
1.39559
2.06099
1.55448
1.93122
2.08196
0.841963
2.12649
1.02335
0.0100789
0.546803
4.07624
0.788707
1.02657
3.00497
1.51821
1.68836
1.29985
0.263407
1.12071
1.88833
1.89112
1.03201
1.00497
1.25269
1.15471
1.11165
1.6927
1.34374
1.22434
0.918046
1.04756
2.1409
1.10157
1.37989
1.34772
0.614288
1.74652
0.00250151
1.80248
1.44888
1.38722
0.827847
1.57616
1.5802
0.65487
1.42507
1.75713
1.67683
1.65318
1.88546
0.743979
1.12895
2.1805
0.505482
0.712082
2.47939
0.00249814
1.38979
1.58631
1.43993
1.81376
1.53697
0.671345
1.72506
2.71877
0.927851
1.81843
1.98902
0.694708
1.00088
1.46039
1.30807
1.05076
1.55846
0.512585
0.554984
2.89116
0.654827
0.690579
2.01963
0.612997
1.70298
2.84965
1.08317
0.956289
1.48301
0.747055
0.968367
2.67887
1.69664
0.779537
1.0127
0.143014
1.18507
1.77764
0.719604
1.73945
2.63682
2.08809
1.12686
2.02814
0.755305
1.8595
2.47045
1.16919
0.918555
1.81745
0.294301
1.05157
2.9838
1.40902
0.0229295
3.06415
1.48217
0.718699
2.10561
1.03169
0.646963
1.6347
0.895234
0.444419
3.22194
0.956389
1.03715
2.11787
1.18273
2.03983
0.903411
1.62871
1.80274
0.525374
1.78429
1.48463
1.10004
1.7227
0.581108
2.94771
0.964185
2.16944
2.01864
1.4013
1.67722
1.41721
1.15172
1.27023
0.82917
1.54381
1.47882
0.190362
0.507268
1.594
0.740688
0.00251382
1.03954
3.54989
1.44577
1.00547
2.5745
0.981171
0.00252222
3.53221
0.172786
1.89816
3.10824
0.570395
1.11025
2.13944
1.47603
1.01427
2.0116
0.878484
1.67018
1.66849
1.54665
1.13808
1.03082
0.78239
1.67086
1.77078
0.844173
0.997235
2.79397
0.738937
1.49825
1.05547
0.5994
1.67349
1.41463
0.820015
0.411378
0.734324
0.716554
0.762451
3.45036
2.15078
2.12047
0.595935
1.25468
0.263601
1.66689
0.399386
0.923438
3.21141
1.00358
1.0627
1.54497
0.377274
0.998689
1.44299
0.682944
1.89509
2.56149
1.91129
1.49086
1.24466
2.15404
1.51173
0.369109
1.83062
0.651139
2.68057
0.904056
1.19061
2.86485
1.66253
0.00250901
1.23543
0.400788
0.840645
2.0349
1.12932
1.02668
1.31912
1.4056
1.12809
1.58312
1.25438
0.0989831
2.79255
1.64161
1.23363
1.20083
0.638435
0.0493311
1.99092
0.878078
0.535992
3.13741
1.34845
1.67148
0.866875
0.346575
1.01496
2.24033
0.678403
0.810199
2.53941
1.34219
2.21503
2.01782
0.891178
0.965462
1.71981
0.886251
0.213013
1.14883
0.797657
1.16772
3.19265
1.34631
1.29925
0.140576
2.13658
1.15549
0.990542
1.51996
0.318268
1.73315
0.625062
1.72932
2.75279
0.960056
1.4224
1.68942
1.11731
1.37472
1.70589
1.05412
1.4367
0.619854
0.792533
1.54066
0.456184
0.907492
0.368017
2.71552
1.72094
1.13337
1.42855
0.346843
1.48349
1.00022
1.21451
0.835408
2.35761
1.38831
1.06822
2.26483
0.314522
0.955355
1.36397
0.379305
0.830482
3.76491
0.46734
1.08555
1.96728
1.16362
0.773401
1.34531
1.31777
1.01544
1.66596
1.70995
1.08358
1.13252
0.762159
1.46457
2.24236
1.58756
2.24335
1.87123
1.65418
0.964571
1.75702
0.362083
0.658946
3.77964
0.0825356
1.2169
2.40976
1.0688
1.78359
0.379754
1.15781
1.19939
2.11795
1.69401
0.49809
1.97644
1.83389
0.594244
2.70233
1.65028
1.3437
1.17708
1.01911
1.62374
1.18617
0.373632
1.51674
1.21521
0.540929
0.984901
2.89435
0.0102505
0.667778
4.5242
1.03097
0.264365
1.53712
0.743657
1.35896
1.37004
1.59454
0.816952
0.898698
0.853153
1.26292
1.07316
1.13361
0.514784
2.20676
1.33729
0.932078
1.09309
1.22898
0.549252
0.224744
0.563413
2.18882
1.90869
1.43505
0.346163
1.24596
0.556503
1.47739
2.77069
1.56705
0.781951
0.801575
0.00251006
1.81696
1.553
1.16053
1.32813
1.73782
0.701543
0.844574
1.71107
1.29746
1.34632
1.90807
1.79013
0.553487
2.87722
0.391212
1.20208
1.39548
2.11268
1.15271
2.11199
1.55194
1.14226
1.4314
1.0148
1.33846
2.34768
1.42348
1.20166
1.22777
1.40322
0.562972
1.66488
0.0864262
1.43146
1.58264
1.30247
1.21073
1.74217
0.905212
1.4358
1.27824
0.292326
0.239055
4.3943
1.06962
1.22798
1.74587
0.546267
1.13762
1.15486
0.622906
0.707404
0.933662
0.0100673
0.883577
3.78092
1.43226
0.616291
1.24179
1.37314
0.451617
1.17625
1.25978
0.637691
1.11125
1.30276
2.19612
1.82632
1.65986
0.134713
1.62922
1.54516
0.369829
1.69442
1.07135
0.788387
2.56975
1.5564
0.404966
1.42956
0.540311
1.16689
1.89742
0.853298
0.59715
0.880193
1.37535
0.338453
1.5082
0.604832
1.5465
1.23003
0.580956
0.175782
3.86252
0.0364199
1.40947
1.66436
0.666721
1.32504
2.40631
0.633037
1.43277
1.39473
2.00148
1.81481
0.790509
0.387946
1.17956
2.38834
0.865779
0.902249
1.29069
1.93858
0.87788
2.35286
0.895963
1.84721
0.681839
0.988189
1.48686
0.593554
0.898767
1.03781
2.06896
0.337885
1.10313
1.2046
0.726818
1.30939
0.927869
0.876995
1.43025
0.146361
1.18353
1.51806
1.76266
1.03084
0.881548
1.3978
1.82075
1.72464
0.495967
1.34747
1.827
1.31645
1.0903
0.811893
1.29537
1.17476
0.855795
2.06754
1.57287
1.57398
1.81557
1.019
1.02728
1.02462
0.555814
1.30465
1.07958
0.64236
0.748103
1.17862
0.678317
1.63805
1.82641
1.50396
1.77963
1.66303
1.63762
1.30013
1.15184
1.6053
0.901115
1.84722
1.84856
0.742989
2.50441
0.853688
1.64581
0.926446
1.21664
1.0822
0.902358
1.23255
1.44615
2.14413
0.624113
1.28047
1.45907
1.1618
1.42548
1.17677
1.98439
1.65989
0.109847
0.688232
1.08114
0.95946
1.75199
1.52901
0.491626
1.80836
1.5733
0.00961837
0.251509
0.570683
1.9038
1.40584
2.21453
1.86743
1.4183
1.33796
1.56434
0.920049
1.03131
0.784374
1.43424
1.16995
0.858661
1.26135
0.565637
2.61976
1.57111
1.3553
1.8429
1.75328
1.4239
1.49575
1.76466
1.61781
0.349068
0.918731
1.37477
1.46762
0.49115
1.37577
0.859167
0.667345
1.27087
0.897626
0.0025012
1.67409
1.44098
0.645298
0.910137
1.5554
1.92621
1.49038
1.43175
1.84438
0.784508
1.43512
0.769908
0.463364
1.90869
0.263546
1.371
1.72283
1.18111
1.13479
1.41741
2.31794
2.12283
0.911527
1.32159
0.551309
0.647248
0.767936
1.21947
1.37859
0.799711
0.560187
3.12592
1.02338
1.01676
0.716011
1.79476
2.62205
1.73595
0.528083
0.661573
2.6452
0.660242
1.2878
1.86515
1.99756
1.41324
1.05737
1.76606
1.6611
0.905061
1.00265
0.717708
1.5267
0.466476
1.29279
2.2516
0.0422846
1.41343
0.662794
1.66399
0.786396
1.97334
1.04283
1.07332
1.11761
1.01296
1.22185
1.03389
0.801752
0.551174
1.53114
1.34167
0.477949
0.863252
1.61291
0.413896
2.13168
1.20859
0.9623
0.460414
1.01336
1.06888
1.98686
1.08041
1.17068
1.10378
1.27446
0.926046
2.07562
1.04051
1.26736
2.07088
0.96008
1.22395
1.90799
0.752679
1.24235
2.06813
1.13814
2.00504
2.02202
1.03666
1.52948
1.21844
0.843929
1.72146
0.350329
0.741659
0.590662
2.30889
0.916626
1.42513
0.778952
1.02356
1.24318
1.06333
1.39816
1.50579
1.5412
0.995401
1.2296
1.21505
0.202532
1.24482
1.74757
1.38996
1.80392
1.23988
0.485042
0.761565
1.39954
1.0475
0.550497
1.00723
1.44677
0.614859
0.91863
1.49589
0.423891
1.77868
1.01658
0.814709
1.6463
1.55147
0.814651
1.85148
1.6757
1.03928
1.82336
1.2003
1.64295
1.60962
1.25426
1.13639
0.957146
1.99235
1.41069
1.07435
1.51758
1.15954
1.39687
1.07449
0.482411
2.00976
2.20816
0.664594
0.30068
1.36969
0.622762
0.847875
0.920711
2.14805
1.33635
0.888075
1.47766
2.15158
1.90934
0.969105
2.51535
1.5707
1.38276
1.01656
0.823301
0.384515
1.41254
0.738979
1.50556
0.759686
2.01193
1.62465
0.242769
1.81183
1.92867
1.71453
1.22814
1.67548
0.644155
0.835911
0.846672
1.2954
1.06865
1.5088
1.3145
0.558993
0.698903
1.11229
1.30282
0.876672
2.03285
1.51164
0.358518
2.44042
0.661635
2.01353
1.84332
1.52152
0.148698
1.09546
1.03632
0.540936
1.11462
1.02389
1.84668
0.447539
1.96877
1.17091
2.08566
0.648094
0.726058
2.21992
1.11589
0.63748
0.810298
0.460222
0.918346
1.65549
0.428504
1.11234
2.06028
1.56494
0.87446
1.09774
0.762099
1.45284
1.50293
0.213678
1.27538
1.53171
0.292475
0.506144
2.0416
0.771755
1.80831
1.37204
0.566208
0.846514
1.14849
1.64064
1.03867
1.02303
1.33953
1.19095
0.945709
1.43775
0.715755
1.11117
0.844002
1.04695
1.11839
0.533766
1.31797
2.08895
1.21024
1.26765
1.54785
0.684405
0.989332
1.88883
1.46297
1.36716
1.45359
0.727961
0.696603
1.55986
1.21771
0.94051
0.529405
1.53053
1.16049
1.38073
0.615089
1.08001
1.71818
1.22967
1.90306
1.20051
0.92327
1.13079
1.32384
1.20437
1.4091
1.24202
0.968381
1.248
1.14667
1.0056
1.54101
1.79934
0.557769
1.90269
1.61079
1.9043
1.35768
1.08325
1.00799
1.17487
1.74287
0.613172
1.28456
1.73344
1.25888
1.07703
2.15593
0.854673
1.11899
1.65213
1.97886
1.19391
2.10648
1.45717
1.24492
1.41999
1.43348
0.192303
1.20489
0.711773
1.27643
1.70986
1.76466
0.357172
2.18004
1.51886
0.88927
1.60381
1.22468
0.894704
1.84775
1.32183
1.36146
1.19035
1.15976
0.540853
1.38042
1.23595
1.11742
1.7643
0.646868
0.813906
2.40171
1.17796
0.734594
2.70388
3.29183
3.27586
3.30363
166
232
3.25307
3.32402
3.34854
3.38489
95
41
168
23
0
0

SCALARS edge_force float
LOOKUP_TABLE default
0.5
0.5
0.5
0.5
0.5
0.5
0.5
0.5
0.5
0.5
0.5
0.5
0.5
0.5
0.5
0.5
0.5
0.5
0.5
0.5
0.5
0.5
0.5
0.5
0.5
0.5
0.5
0.5
0.5
0.5
0.5
0.5
0.5
0.5
0.5
0.5
0.5
0.5
0.5
0.5
0.5
0.5
0.5
0.5
0.5
0.5
0.5
0.5
0.5
0.5
0.5
0.5
0.5
0.5
0.5
0.5
0.5
0.5
0.5
0.5
0.5
0.5
0.5
0.5
0.5
0.5
0.5
0.5
0.5
0.5
0.5
0.5
0.5
0.5
0.5
0.5
0.5
0.5
0.5
0.5
0.5
0.5
0.5
0.5
0.5
0.5
0.5
0.5
0.5
0.5
0.5
0.5
0.5
0.5
0.5
0.5
0.5
0.5
0.5
0.5
0.5
0.5
0.5
0.5
0.5
0.5
0.5
0.5
0.5
0.5
0.5
0.5
0.5
0.5
0.5
0.5
0.5
0.5
0.5
0.5
0.5
0.5
0.5
0.5
0.5
0.5
0.5
0.5
0.5
0.5
0.5
0.5
0.5
2
0.5
2
0.5
2
0.5
0.5
2
0.5
2
0.5
2
0.5
0.5
2
0.5
2
0.5
2
0.5
0.5
2
0.5
2
0.5
2
0.5
0.5
2
0.5
2
0.5
2
0.5
0.5
2
0.5
2
0.5
2
0.5
2
2
2
2
2
2
2
0.5
0.5
2
0.5
0.5
0.5
0.5
0.5
0.5
0.5
0.5
0.5
0.5
0.5
0.5
0.5
0.5
0.5
0.5
0.5
0.5
0.5
0.5
0.5
0.5
0.5
0.5
0.5
0.5
0.5
0.5
0.5
0.5
0.5
0.5
0.5
0.5
0.5
0.5
0.5
0.5
0.5
0.5
0.5
0.5
0.5
0.5
0.5
0.5
0.5
0.5
0.5
0.5
0.5
2
0.5
0.5
2
0.5
0.5
0.5
0.5
0.5
0.5
0.5
0.5
0.5
0.5
0.5
0.5
0.5
0.5
2
0.5
0.5
0.5
0.5
2
0.5
0.5
0.5
0.5
0.5
0.5
0.5
0.5
0.5
2
0.5
2
0.5
0.5
0.5
2
0.5
0.5
0.5
0.5
0.5
2
0.5
2
0.5
0.5
2
0.5
0.5
0.5
0.5
0.5
2
0.5
0.5
0.5
0.5
0.5
0.5
0.5
0.5
0.5
0.5
0.5
0.5
0.5
0.5
2
0.5
0.5
0.5
0.5
0.5
0.5
0.5
0.5
0.5
0.5
0.5
0.5
0.5
0.5
0.5
0.5
0.5
0.5
2
0.5
0.5
2
0.5
2
0.5
0.5
2
0.5
0.5
0.5
0.5
0.5
0.5
0.5
0.5
0.5
0.5
0.5
0.5
0.5
0.5
0.5
0.5
0.5
2
0.5
0.5
0.5
0.5
0.5
0.5
0.5
0.5
0.5
0.5
0.5
2
0.5
0.5
0.5
0.5
0.5
0.5
0.5
0.5
0.5
2
0.5
0.5
0.5
0.5
0.5
0.5
0.5
0.5
2
0.5
0.5
0.5
0.5
0.5
0.5
0.5
2
0.5
0.5
0.5
2
0.5
0.5
0.5
0.5
0.5
0.5
0.5
0.5
0.5
0.5
0.5
0.5
0.5
2
0.5
0.5
0.5
0.5
0.5
0.5
0.5
0.5
2
0.5
0.5
0.5
0.5
0.5
0.5
0.5
0.5
0.5
0.5
0.5
0.5
2
0.5
0.5
0.5
0.5
0.5
0.5
0.5
2
0.5
0.5
0.5
0.5
0.5
0.5
0.5
0.5
0.5
0.5
0.5
0.5
2
0.5
0.5
0.5
0.5
0.5
0.5
0.5
0.5
0.5
0.5
0.5
0.5
0.5
0.5
0.5
0.5
0.5
0.5
0.5
0.5
0.5
0.5
2
0.5
0.5
2
0.5
0.5
0.5
0.5
0.5
2
0.5
0.5
0.5
0.5
0.5
0.5
0.5
0.5
0.5
0.5
0.5
0.5
0.5
0.5
0.5
0.5
0.5
0.5
0.5
0.5
0.5
0.5
0.5
2
0.5
0.5
0.5
0.5
0.5
0.5
0.5
0.5
0.5
0.5
0.5
2
0.5
0.5
2
0.5
0.5
0.5
0.5
0.5
0.5
0.5
0.5
0.5
0.5
0.5
0.5
2
0.5
2
0.5
0.5
0.5
0.5
0.5
0.5
0.5
0.5
0.5
0.5
0.5
0.5
0.5
0.5
0.5
0.5
0.5
0.5
0.5
0.5
0.5
0.5
0.5
0.5
2
0.5
0.5
0.5
0.5
2
0.5
0.5
0.5
0.5
0.5
0.5
0.5
0.5
0.5
0.5
0.5
0.5
0.5
0.5
0.5
0.5
0.5
2
0.5
0.5
0.5
0.5
0.5
2
0.5
0.5
0.5
0.5
0.5
2
0.5
0.5
0.5
0.5
0.5
0.5
0.5
0.5
0.5
0.5
0.5
0.5
0.5
0.5
0.5
0.5
0.5
2
0.5
0.5
0.5
0.5
0.5
0.5
0.5
0.5
0.5
0.5
0.5
2
0.5
0.5
0.5
0.5
0.5
0.5
0.5
0.5
0.5
0.5
0.5
0.5
2
0.5
0.5
0.5
0.5
0.5
0.5
0.5
2
0.5
0.5
0.5
0.5
0.5
0.5
0.5
0.5
0.5
0.5
0.5
0.5
0.5
0.5
0.5
0.5
0.5
2
0.5
0.5
0.5
0.5
0.5
0.5
2
0.5
0.5
0.5
0.5
0.5
0.5
0.5
0.5
0.5
0.5
0.5
0.5
0.5
2
0.5
0.5
0.5
0.5
0.5
0.5
0.5
0.5
0.5
0.5
0.5
0.5
0.5
0.5
0.5
0.5
0.5
0.5
0.5
0.5
0.5
2
0.5
0.5
0.5
0.5
0.5
0.5
0.5
0.5
0.5
0.5
0.5
0.5
0.5
0.5
0.5
0.5
0.5
2
0.5
0.5
0.5
0.5
0.5
0.5
0.5
0.5
0.5
0.5
0.5
0.5
0.5
0.5
0.5
0.5
0.5
0.5
0.5
2
0.5
0.5
2
0.5
0.5
0.5
0.5
0.5
0.5
0.5
0.5
0.5
2
0.5
0.5
0.5
0.5
0.5
0.5
0.5
0.5
0.5
0.5
0.5
0.5
0.5
0.5
0.5
0.5
0.5
0.5
0.5
0.5
0.5
0.5
0.5
2
0.5
0.5
0.5
0.5
0.5
0.5
0.5
0.5
0.5
0.5
2
0.5
0.5
2
0.5
0.5
0.5
0.5
0.5
0.5
0.5
0.5
0.5
0.5
0.5
0.5
0.5
0.5
0.5
0.5
0.5
0.5
0.5
0.5
0.5
0.5
0.5
2
0.5
0.5
0.5
0.5
0.5
0.5
0.5
0.5
0.5
0.5
0.5
0.5
0.5
0.5
0.5
0.5
0.5
0.5
0.5
0.5
0.5
0.5
0.5
2
0.5
0.5
0.5
0.5
0.5
0.5
2
0.5
2
0.5
0.5
0.5
0.5
0.5
0.5
0.5
0.5
0.5
0.5
0.5
0.5
0.5
0.5
0.5
0.5
0.5
0.5
0.5
0.5
2
0.5
0.5
0.5
0.5
0.5
0.5
0.5
0.5
0.5
0.5
0.5
0.5
0.5
0.5
2
0.5
0.5
0.5
0.5
0.5
0.5
0.5
0.5
0.5
0.5
0.5
2
0.5
0.5
0.5
0.5
0.5
0.5
0.5
0.5
0.5
0.5
0.5
0.5
2
0.5
0.5
0.5
0.5
0.5
0.5
0.5
0.5
0.5
0.5
0.5
0.5
0.5
0.5
0.5
0.5
0.5
0.5
0.5
0.5
0.5
0.5
0.5
0.5
0.5
0.5
0.5
0.5
0.5
0.5
0.5
0.5
0.5
0.5
0.5
0.5
0.5
0.5
0.5
0.5
0.5
0.5
0.5
2
0.5
0.5
2
0.5
0.5
0.5
0.5
0.5
0.5
0.5
0.5
0.5
0.5
0.5
0.5
0.5
0.5
0.5
0.5
0.5
0.5
0.5
0.5
0.5
0.5
0.5
0.5
2
0.5
0.5
2
0.5
2
0.5
0.5
0.5
0.5
0.5
0.5
0.5
0.5
0.5
0.5
0.5
0.5
0.5
0.5
0.5
0.5
0.5
0.5
0.5
0.5
0.5
0.5
0.5
0.5
0.5
0.5
0.5
0.5
0.5
0.5
0.5
0.5
2
0.5
0.5
0.5
0.5
0.5
0.5
0.5
0.5
0.5
0.5
0.5
0.5
0.5
0.5
2
0.5
0.5
0.5
2
0.5
0.5
0.5
0.5
0.5
0.5
0.5
0.5
0.5
0.5
0.5
0.5
0.5
0.5
0.5
0.5
0.5
0.5
0.5
0.5
2
0.5
0.5
0.5
0.5
0.5
0.5
0.5
0.5
0.5
0.5
0.5
0.5
0.5
0.5
0.5
0.5
0.5
0.5
0.5
2
0.5
0.5
0.5
2
0.5
0.5
0.5
0.5
0.5
0.5
0.5
0.5
0.5
0.5
0.5
0.5
0.5
0.5
0.5
0.5
0.5
0.5
0.5
0.5
0.5
0.5
0.5
0.5
0.5
0.5
0.5
0.5
0.5
0.5
0.5
0.5
2
0.5
0.5
0.5
0.5
0.5
0.5
0.5
0.5
0.5
0.5
0.5
0.5
0.5
2
0.5
0.5
0.5
0.5
0.5
2
0.5
0.5
0.5
0.5
0.5
0.5
0.5
0.5
0.5
0.5
0.5
2
0.5
0.5
0.5
0.5
0.5
0.5
0.5
0.5
0.5
0.5
0.5
0.5
0.5
0.5
0.5
0.5
0.5
0.5
0.5
0.5
2
0.5
0.5
0
0
0
0
0
0
0
0
0
0
0
0
0
0
0
