# vtk DataFile Version 3.0
2D-vertex
ASCII
DATASET UNSTRUCTURED_GRID

POINTS 144 float
-0.309328 -0.242519 0
1.30933 -0.242519 0
1.71845 0.336888 0
1.1428 1.45247 0
-0.142802 1.45247 0
-0.718452 0.336888 0
2.8651 0.260822 0
3.36999 1.0642 0
2.70078 2.26577 0
1.64215 2.28184 0
1.05011 3.33334 0
-0.0501068 3.33334 0
-0.642152 2.28184 0
-1.70079 2.26577 0
-2.36999 1.0642 0
-1.8651 0.260822 0
4.30516 1.06978 0
4.84813 2.08845 0
4.19556 3.18204 0
3.25616 3.19451 0
2.66262 4.26706 0
1.61089 4.28431 0
1.03275 5.30839 0
-0.0327498 5.30839 0
-0.610894 4.28431 0
-1.66262 4.26706 0
-2.25616 3.19451 0
-3.19557 3.18204 0
-3.84813 2.08845 0
-3.30516 1.06978 0
5.54449 2.1286 0
6.39541 3.49171 0
6.11388 4.16297 0
4.87104 4.26572 0
4.41277 5.16721 0
3.24763 5.21722 0
2.70247 6.24513 0
1.60814 6.27534 0
1.04105 7.29378 0
-0.0410519 7.29378 0
-0.608143 6.27534 0
-1.70247 6.24513 0
-2.24763 5.21722 0
-3.41277 5.16721 0
-3.87104 4.26572 0
-5.11389 4.16297 0
-5.39541 3.49171 0
-4.54449 2.1286 0
6.77037 5.06733 0
6.35412 5.9429 0
4.97034 6.02371 0
4.45721 7.04765 0
3.25913 7.1165 0
2.7122 8.20921 0
1.62824 8.26159 0
1.10578 9.21679 0
-0.10578 9.21679 0
-0.628241 8.26159 0
-1.7122 8.20921 0
-2.25913 7.1165 0
-3.45721 7.04765 0
-3.97034 6.02371 0
-5.35412 5.9429 0
-5.77037 5.06733 0
6.82811 6.68835 0
6.27194 7.70835 0
4.94139 7.77138 0
4.40856 8.95501 0
3.32645 9.08548 0
2.88053 10.1391 0
1.72154 10.2329 0
1.31084 10.9323 0
-0.310842 10.9323 0
-0.721539 10.2329 0
-1.88053 10.1391 0
-2.32645 9.08548 0
-3.40856 8.95501 0
-3.94139 7.77138 0
-5.27194 7.70835 0
-5.82811 6.68835 0
6.59909 8.25962 0
5.98911 9.65976 0
5.14464 9.84509 0
4.87215 10.7231 0
3.68251 11.0362 0
3.58045 11.5099 0
1.72974 11.8917 0
1.16576 12.5813 0
-0.165764 12.5813 0
-0.729736 11.8917 0
-2.58045 11.5099 0
-2.68251 11.0362 0
-3.87215 10.7231 0
-4.14464 9.84509 0
-4.98911 9.65976 0
-5.59909 8.25962 0
1.71379 -1.83098 0
3.55709 -1.22526 0
5.20655 -0.305692 0
6.68631 0.938112 0
7.96295 2.99207 0
8.42217 4.85558 0
8.52637 6.69885 0
8.29562 8.55371 0
7.3246 10.6973 0
6.15276 12.0351 0
4.92937 13.0651 0
1.58887 14.4101 0
-0.588867 14.4101 0
-3.92937 13.0651 0
-5.15276 12.0351 0
-6.3246 10.6973 0
-7.29562 8.55371 0
-7.52637 6.69885 0
-7.42217 4.85558 0
-6.96295 2.99207 0
-5.68631 0.938112 0
-4.20656 -0.305692 0
-2.55709 -1.22526 0
-0.71379 -1.83098 0
3.10542 14.0153 0
2.53835 12.1093 0
-2.10542 14.0153 0
-1.53835 12.1093 0
-0.436366 3.98835 0
1.41954 4.62326 0
-1.14248 6.26059 0
-1.14568 4.27554 0
4.11012 5.1802 0
3.5713 7.09856 0
0.390581 9.21679 0
0.609897 7.29378 0
-0.538386 6.40061 0
-1.86925 7.89544 0
4.53746 7.1676 0
3.03813 8.67418 0
2.91332 8.49613 0
1.56275 9.97086 0
0.431418 10.9323 0
0.774666 9.21679 0
-0.360616 9.63731 0
-2.09006 8.74826 0
-1.83647 8.38649 0
-3.86982 7.6644 0

CELLS 216 648
2 0 1
2 1 2
2 2 3
2 3 4
2 4 5
2 5 0
2 2 6
2 6 7
2 7 8
2 8 9
2 9 3
2 9 10
2 11 10
2 11 12
2 12 4
2 12 13
2 13 14
2 14 15
2 15 5
2 7 16
2 16 17
2 17 18
2 18 19
2 19 8
2 19 20
2 20 21
2 10 21
2 125 22
2 22 23
2 24 23
2 24 124
2 127 24
2 25 26
2 26 13
2 26 27
2 27 28
2 28 29
2 29 14
2 17 30
2 30 31
2 31 32
2 32 33
2 33 18
2 33 34
2 35 128
2 35 20
2 36 35
2 36 37
2 37 22
2 37 38
2 131 38
2 40 132
2 23 40
2 126 40
2 41 42
2 42 25
2 42 43
2 43 44
2 44 27
2 44 45
2 45 46
2 46 47
2 47 28
2 32 48
2 48 49
2 49 50
2 34 50
2 50 51
2 52 129
2 52 36
2 53 52
2 54 53
2 38 54
2 55 54
2 139 55
2 57 56
2 39 57
2 58 57
2 59 133
2 59 41
2 60 59
2 60 61
2 61 43
2 61 62
2 62 63
2 63 45
2 49 64
2 64 65
2 65 66
2 51 134
2 66 67
2 67 68
2 53 136
2 68 69
2 69 70
2 55 137
2 70 71
2 71 138
2 72 73
2 56 140
2 73 74
2 74 75
2 58 142
2 75 76
2 76 77
2 143 60
2 77 78
2 78 79
2 79 62
2 65 80
2 80 81
2 81 82
2 82 67
2 82 83
2 84 83
2 84 69
2 85 84
2 121 85
2 86 71
2 87 86
2 87 88
2 89 88
2 89 72
2 123 89
2 90 91
2 91 74
2 91 92
2 92 93
2 93 76
2 93 94
2 94 95
2 95 78
2 1 96
2 96 97
2 97 6
2 97 98
2 16 98
2 98 99
2 99 30
2 31 100
2 100 101
2 101 48
2 101 102
2 102 64
2 102 103
2 103 80
2 81 104
2 104 105
2 83 105
2 105 106
2 85 106
2 106 120
2 107 87
2 88 108
2 108 122
2 109 90
2 109 110
2 110 92
2 110 111
2 111 94
2 95 112
2 112 113
2 113 79
2 113 114
2 114 63
2 114 115
2 115 46
2 47 116
2 116 117
2 117 29
2 117 118
2 118 15
2 118 119
2 119 0
2 119 96
2 99 100
2 103 104
2 107 108
2 111 112
2 115 116
2 120 107
2 121 86
2 120 121
2 122 109
2 123 90
2 122 123
2 124 11
2 125 21
2 124 125
2 41 126
2 127 25
2 126 127
2 128 34
2 129 51
2 128 129
2 56 130
2 131 39
2 130 131
2 132 39
2 133 58
2 132 133
2 134 66
2 135 68
2 134 135
2 136 135
2 137 70
2 136 137
2 138 72
2 139 130
2 138 139
2 140 73
2 141 75
2 140 141
2 142 141
2 143 77
2 142 143

CELL_TYPES 216
3
3
3
3
3
3
3
3
3
3
3
3
3
3
3
3
3
3
3
3
3
3
3
3
3
3
3
3
3
3
3
3
3
3
3
3
3
3
3
3
3
3
3
3
3
3
3
3
3
3
3
3
3
3
3
3
3
3
3
3
3
3
3
3
3
3
3
3
3
3
3
3
3
3
3
3
3
3
3
3
3
3
3
3
3
3
3
3
3
3
3
3
3
3
3
3
3
3
3
3
3
3
3
3
3
3
3
3
3
3
3
3
3
3
3
3
3
3
3
3
3
3
3
3
3
3
3
3
3
3
3
3
3
3
3
3
3
3
3
3
3
3
3
3
3
3
3
3
3
3
3
3
3
3
3
3
3
3
3
3
3
3
3
3
3
3
3
3
3
3
3
3
3
3
3
3
3
3
3
3
3
3
3
3
3
3
3
3
3
3
3
3
3
3
3
3
3
3
3
3
3
3
3
3
3
3
3
3
3
3
3
3
3
3
3
3

CELL_DATA 216
SCALARS current_Length float
LOOKUP_TABLE default
1.61866
0.709293
1.25535
1.2856
1.25535
0.709293
1.14917
0.948856
1.37536
1.05876
0.968097
1.20672
1.10021
1.20672
0.968097
1.05876
1.37536
0.948856
1.14917
0.935185
1.15434
1.2735
0.939486
1.08213
1.22583
1.05187
1.104
1.176
1.0655
1.176
1.104
1.05187
1.22583
1.08213
0.939486
1.2735
1.15434
0.935185
0.697521
1.6069
0.727902
1.24709
1.27695
1.01129
1.16622
1.11581
1.16353
1.09474
1.1252
1.16568
1.0821
1.16568
1.1252
1.09474
1.16353
1.11581
1.16622
1.01129
1.27695
1.24709
0.727902
1.6069
0.697521
1.11752
0.969474
1.38614
1.02199
1.14532
1.20006
1.034
1.22194
1.08522
1.13201
1.08875
1.21156
1.08875
1.13201
1.08522
1.22194
1.034
1.20006
1.14532
1.02199
1.38614
0.969474
1.11752
0.883389
1.16177
1.33204
0.87075
1.29804
1.08994
1.07012
1.14408
1.16278
1.18812
0.811046
1.62168
0.811046
1.18812
1.16278
1.14408
1.07012
1.08994
1.29804
0.87075
1.33204
1.16177
0.883389
0.641039
1.52724
0.864562
1.15502
0.919331
1.23014
1.20332
0.484567
1.20217
1.04691
0.890837
1.33153
0.890837
1.04691
0.837362
0.484567
1.20332
1.23014
0.919331
1.15502
0.864562
1.52724
0.641039
1.63915
1.94027
1.63929
1.88848
1.64451
1.93306
1.64955
1.64524
1.91926
1.66531
1.84621
1.69829
1.86916
1.72183
1.69113
1.77852
1.8334
1.59923
2.05871
2.0566
1.87713
1.87713
1.56712
2.05871
1.59923
1.8334
1.77852
1.69113
1.72183
1.86916
1.69829
1.84621
1.66531
1.91926
1.64524
1.64955
1.93306
1.64451
1.88848
1.63929
1.94027
1.63915
2.42758
2.41838
2.35322
2.17773
2.35322
2.41838
1.56712
0.837362
1.98857
2.0566
1.20217
1.98857
0
0
0
0
0
0
0
0
0
0
0
0
0
0
0
0
0
0
0
0
0
0
0
0
0
0
0
0
0
0

SCALARS edge_force float
LOOKUP_TABLE default
0.5
0.5
0.5
0.5
0.5
0.5
0.5
0.5
0.5
0.5
0.5
0.5
0.5
0.5
0.5
0.5
0.5
0.5
0.5
0.5
0.5
0.5
0.5
0.5
0.5
0.5
0.5
0.5
0.5
0.5
0.5
0.5
0.5
0.5
0.5
0.5
0.5
0.5
0.5
0.5
0.5
0.5
0.5
0.5
0.5
0.5
0.5
0.5
0.5
0.5
0.5
0.5
0.5
0.5
0.5
0.5
0.5
0.5
0.5
0.5
0.5
0.5
0.5
0.5
0.5
0.5
0.5
0.5
0.5
0.5
0.5
0.5
0.5
0.5
0.5
0.5
0.5
0.5
0.5
0.5
0.5
0.5
0.5
0.5
0.5
0.5
0.5
0.5
0.5
0.5
0.5
0.5
0.5
0.5
0.5
0.5
0.5
0.5
0.5
0.5
0.5
0.5
0.5
0.5
0.5
0.5
0.5
0.5
0.5
0.5
0.5
0.5
0.5
0.5
0.5
0.5
0.5
0.5
0.5
0.5
0.5
0.5
0.5
0.5
0.5
0.5
0.5
0.5
0.5
0.5
0.5
0.5
0.5
2
0.5
2
0.5
2
0.5
0.5
2
0.5
2
0.5
2
0.5
0.5
2
0.5
2
0.5
2
0.5
0.5
2
0.5
2
0.5
2
0.5
0.5
2
0.5
2
0.5
2
0.5
0.5
2
0.5
2
0.5
2
0.5
2
2
2
2
2
2
2
0.5
0.5
2
0.5
0.5
0
0
0
0
0
0
0
0
0
0
0
0
0
0
0
0
0
0
0
0
0
0
0
0
0
0
0
0
0
0
