# vtk DataFile Version 2.0
2D-vertex
ASCII
DATASET UNSTRUCTURED_GRID
POINTS 160 float
-0.402068 -1.1728 0
1.56927 -1.286 0
2.0325 -0.674396 0
1.71463 -0.0445101 0
-0.287482 0.244105 0
-0.828045 -0.407507 0
3.38885 -0.767596 0
3.96409 0.214165 0
3.1685 1.31346 0
2.24728 1.13326 0
1.27667 2.35921 0
-0.375933 3.02845 0
-1.35964 1.74643 0
-1.90274 1.66212 0
-2.45003 0.416436 0
-1.94755 -0.378859 0
4.95022 0.244543 0
5.54367 1.25714 0
3.98586 2.2557 0
3.45354 2.12386 0
2.48905 3.49587 0
2.25843 3.4986 0
1.22176 5.98849 0
-0.0746339 5.8635 0
-0.57263 3.84209 0
-2.49205 3.09244 0
-2.61723 2.4534 0
-3.76308 2.22413 0
-4.14736 1.40599 0
-3.51108 0.374387 0
6.46185 1.28782 0
7.48782 3.10666 0
7.00504 3.91943 0
5.00057 4.15468 0
5.46298 5.06359 0
2.91739 5.28921 0
2.1135 6.13896 0
1.35415 6.17191 0
0.932376 7.69738 0
-0.353535 7.59479 0
-0.875245 6.32552 0
-3.19385 5.43541 0
-3.80125 4.45844 0
-4.54782 4.41622 0
-4.88048 3.71024 0
-5.81502 3.58092 0
-6.03885 2.93603 0
-4.95172 1.40132 0
7.51754 4.83928 0
7.1453 5.69248 0
6.57345 5.80276 0
5.52849 7.45809 0
3.12916 7.53751 0
2.98495 8.01713 0
1.80213 8.37504 0
1.70266 9.9944 0
-0.983111 10.0124 0
-1.42115 8.70973 0
-2.69661 8.20485 0
-3.50326 6.36952 0
-4.62234 6.69037 0
-5.3511 5.82379 0
-6.19727 5.82867 0
-6.71418 4.70233 0
7.80436 6.51651 0
7.38458 7.69287 0
6.35764 8.0403 0
6.02637 9.86467 0
4.84774 10.0667 0
4.23051 11.3244 0
2.9775 11.2426 0
2.08554 12.1467 0
-0.00963395 11.9801 0
-1.16681 11.3286 0
-3.4377 11.1385 0
-3.59487 10.1907 0
-4.86534 9.70469 0
-5.10027 8.03792 0
-6.22323 7.69044 0
-6.68099 6.54509 0
7.85831 8.25716 0
7.3051 10.0851 0
6.51241 10.3431 0
6.18481 11.6018 0
4.68883 11.9338 0
4.5339 12.4214 0
2.21516 12.7341 0
1.60165 13.3847 0
0.180761 13.4337 0
-0.161519 13.096 0
-3.66116 13.2217 0
-4.25044 11.9117 0
-5.23199 11.665 0
-5.53951 10.2622 0
-6.19572 10.0153 0
-6.69609 8.26756 0
1.85284 -2.67647 0
3.96222 -2.01713 0
5.77174 -1.02328 0
7.43028 0.344768 0
8.8262 2.71541 0
9.24003 4.64341 0
9.40826 6.37923 0
9.36097 8.36651 0
8.51242 10.8496 0
7.15198 12.5576 0
5.6216 13.8205 0
2.03746 15.1646 0
-0.125604 15.2748 0
-4.16997 14.1142 0
-6.14761 12.5819 0
-7.47369 10.7918 0
-8.24714 8.35954 0
-8.29712 6.43107 0
-8.05829 4.45698 0
-7.42679 2.39591 0
-5.92807 0.279498 0
-4.31495 -0.950533 0
-2.68403 -1.85017 0
-0.81573 -2.55665 0
3.59692 14.7822 0
3.16671 13.078 0
-1.95613 14.974 0
-1.55531 13.5162 0
-0.356958 3.64942 0
1.47484 4.41633 0
-2.02081 5.22839 0
-1.53071 3.79585 0
4.34921 5.95918 0
4.41292 7.00084 0
0.195197 9.94042 0
0.47461 7.92585 0
-0.942152 6.6096 0
-2.64413 7.13562 0
5.558 7.62344 0
4.25927 9.08518 0
3.73737 9.06965 0
2.70943 10.3913 0
0.768451 11.5575 0
0.817023 10.4645 0
-1.32285 10.3901 0
-3.10372 9.79496 0
-3.24119 8.56352 0
-4.73388 7.7893 0
1.30956 1.88505 0
-0.385398 0.894874 0
6.26686 3.74823 0
5.37537 1.60594 0
4.99912 4.15758 0
3.05142 4.26012 0
-2.11571 12.9836 0
-1.97488 11.8342 0
2.98508 4.16996 0
1.28366 5.60395 0
-6.03212 10.0769 0
-5.50702 7.91206 0
-0.948459 -0.404426 0
-1.74988 -2.20341 0
0.891207 13.4092 0
0.955931 15.2197 0
CELLS 81 533
6 0 1 2 3 4 5
6 7 8 9 3 2 6
5 145 4 3 9 144
8 145 12 13 14 15 156 5 4
7 7 16 17 147 18 19 8
7 19 20 21 10 144 9 8
6 24 124 125 153 22 23
8 25 26 13 12 11 124 24 127
6 26 27 28 29 14 13
6 32 146 147 17 30 31
7 18 33 148 149 152 20 19
5 20 152 153 125 21
8 22 37 38 131 39 132 40 23
5 24 23 40 126 127
6 26 25 42 43 44 27
6 28 27 44 45 46 47
8 32 48 49 50 34 148 33 146
5 128 129 52 36 35
6 36 52 53 54 38 37
6 38 54 55 139 130 131
6 40 132 133 59 41 126
6 42 41 59 60 61 43
6 44 43 61 62 63 45
7 49 64 65 66 134 51 50
7 51 134 135 136 53 52 129
5 53 136 137 55 54
6 55 137 70 71 138 139
6 57 56 140 141 142 58
6 59 133 58 142 143 60
8 61 60 143 77 155 78 79 62
6 65 80 81 82 67 66
6 67 82 83 84 69 68
7 69 84 85 121 86 71 70
8 71 86 87 158 88 89 72 138
6 73 72 89 123 150 151
6 92 93 76 75 74 91
5 77 76 93 154 155
5 1 96 97 6 2
5 6 97 98 16 7
5 16 98 99 30 17
5 31 100 101 48 32
5 48 101 102 64 49
5 64 102 103 80 65
5 81 104 105 83 82
5 83 105 106 85 84
4 85 106 120 121
5 88 108 122 123 89
5 90 109 110 92 91
6 93 92 110 111 94 154
5 95 112 113 79 78
5 79 113 114 63 62
5 63 114 115 46 45
5 47 116 117 29 28
5 29 117 118 15 14
5 156 157 119 0 5
4 0 119 96 1
4 30 99 100 31
4 80 103 104 81
4 158 159 108 88
4 94 111 112 95
4 46 115 116 47
5 120 107 87 86 121
5 122 109 90 150 123
5 124 11 10 21 125
5 126 41 42 25 127
5 128 34 50 51 129
5 130 56 57 39 131
5 132 39 57 58 133
5 134 66 67 68 135
6 136 135 68 69 70 137
7 138 72 73 140 56 130 139
6 140 73 151 74 75 141
6 142 141 75 76 77 143
5 144 10 11 12 145
4 146 33 18 147
5 148 34 128 35 149
5 150 90 91 74 151
7 152 149 35 36 37 22 153
5 154 94 95 78 155
4 156 15 118 157
4 158 87 107 159
CELL_TYPES 81
7
7
7
7
7
7
7
7
7
7
7
7
7
7
7
7
7
7
7
7
7
7
7
7
7
7
7
7
7
7
7
7
7
7
7
7
7
7
7
7
7
7
7
7
7
7
7
7
7
7
7
7
7
7
7
7
7
7
7
7
7
7
7
7
7
7
7
7
7
7
7
7
7
7
7
7
7
7
7
7
7
CELL_DATA 81
SCALARS cell_division_count float
LOOKUP_TABLE default
0
0
1
0
0
0
1
0
0
1
1
1
0
1
0
0
0
1
0
1
1
0
0
0
1
1
1
1
1
0
0
0
0
0
1
0
1
0
0
0
0
0
0
0
0
1
1
0
0
0
0
0
0
0
1
0
0
0
1
0
0
1
1
1
1
1
1
1
1
1
1
1
1
1
1
1
1
1
1
1
1
SCALARS cell_time float
LOOKUP_TABLE default
2.67694e+17
2.22229e+13
11
4.48239e+13
2.67348e+11
1.25633e+10
21
2.68223e+09
9.19769e+11
11
11
1
570355
21
7.21351e+09
3.78616e+11
1.226e+06
21
85442.9
21
21
470091
2.40939e+06
23803.4
21
21
21
21
21
10968
140980
175.897
67.5644
12153.2
11
271.157
1
1.00108e+18
2.94533e+15
4.04436e+13
7.27143e+07
105103
1365.76
77.338
100.595
31
31
68.0058
103.663
2719.01
336.177
1.58454e+07
5.73434e+13
7.32315e+15
1
1.93557e+06
1.12104e+13
21186.3
1
2057.96
3.046e+12
31
31
21
21
21
21
21
21
21
21
21
21
11
11
11
11
1
1
1
1
SCALARS cell_area float
LOOKUP_TABLE default
3.2556
3.27599
3.22555
3.31167
3.29992
3.29029
3.22046
3.3171
3.29287
3.24909
3.25639
3.30747
3.30845
3.21026
3.26474
3.26765
3.33481
3.21802
3.26129
3.25587
3.23241
3.2634
3.28197
3.3076
3.27477
3.22793
3.28541
3.24778
3.25684
3.31378
3.25888
3.27041
3.31191
3.32112
3.28326
3.26429
3.26956
3.2818
3.2963
3.28703
3.29659
3.31071
3.29238
3.27658
3.2818
3.2456
3.28737
3.27543
3.2781
3.29349
3.30074
3.2862
3.28879
3.3021
3.29042
3.22572
3.22397
3.22692
3.24957
3.23294
3.23247
3.2857
3.27898
3.22447
3.21688
3.23454
3.22168
3.21036
3.23403
3.26464
3.30738
3.26122
3.26421
3.22761
3.18654
3.21507
3.23304
0
0
0
0
SCALARS cell_perimeter float
LOOKUP_TABLE default
7.19268
6.79126
7.13838
6.76951
6.84593
6.88669
7.25172
6.9437
6.77312
7.41772
7.28109
7.17245
6.87865
7.06566
7.09935
7.07441
7.00902
6.91403
6.91041
7.08633
6.98575
6.79929
6.86738
6.998
7.03714
6.90858
6.78429
7.02293
6.82396
6.79918
7.10057
6.87429
6.92988
6.85287
6.79425
6.76574
6.99876
7.1307
7.07448
7.1048
7.09823
7.07335
7.09003
7.10668
7.16019
7.28796
7.17004
7.27347
7.1562
7.08258
7.07866
7.13131
7.08191
7.06027
7.08284
7.50928
7.58548
7.46953
7.28655
7.41945
7.4506
7.10177
7.25105
7.10084
6.9389
6.96997
7.02422
6.91497
7.05156
6.89006
6.76062
6.99356
7.03768
7.13114
7.33731
7.01603
6.8998
0
0
0
0
SCALARS cell_frequency_modifier float
LOOKUP_TABLE default
2.30609e+15
5.88253e+12
3.98789e+13
3.57651e+11
1.97487e+10
4.30284e+08
1.55117e+07
2.29918e+07
1.22887e+10
3.75084e+10
4.93634e+07
34229.7
257.49
7.20058e+06
1.57611e+07
3.35346e+08
57476.2
188222
460.15
64.1297
306837
28742.7
120348
168.167
62.3507
1049.96
1.00626
908.897
564.564
172.5
32.3603
1.83417
0.334572
0.297014
0.600815
2.75898
13.7534
2.37966e+16
2.04475e+14
1.28372e+12
1.10214e+06
4372.54
81.8923
1.25999
0.650494
114.13
0.710806
0.860346
1.21762
74.9876
5310.26
3.24627e+06
8.30491e+11
7.03576e+13
5.21037e+15
10000
4.51556e+11
789.789
28.2115
821.225
7.12428e+11
0.705632
0.874161
1.32994e+09
4.55248e+07
256585
1672.53
12357.1
1449
4.21002
0.701815
4.46181
20.2088
2.77587e+11
6.74083e+09
8.71178e+06
104.33
1
1
1
1
SCALARS cell_area_modifier float
LOOKUP_TABLE default
8.10526
0.814815
100
0.321503
0.385965
0.468085
100
0.302554
0.428969
100
3.94872
0.350797
0.335512
100
1.1938
1.10791
0.291115
100
1.94937
5.31034
100
1.73034
0.618474
0.342984
0.911243
100
0.572491
100
3.14286
0.308617
2.61017
0.968553
0.314928
0.296724
0.594595
1.41284
1.03356
0.672489
0.406332
0.51505
0.395887
0.328358
0.441261
0.773869
0.644351
100
0.498382
0.860335
0.736842
0.417344
0.376528
0.532872
0.482759
0.367542
0.454277
100
100
100
17.1111
100
100
0.551971
0.703196
100
100
100
100
100
100
1.29412
0.358974
2.23188
1.55556
100
100
100
100
1
1
1
1
SCALARS cell_Gaussian_modifier float
LOOKUP_TABLE default
2.84518e+14
7.21947e+12
3.98789e+11
1.11243e+12
5.1167e+10
9.19244e+08
155117
7.59925e+07
2.8647e+10
3.75084e+08
1.25011e+07
97576.9
767.455
72005.8
1.32025e+07
3.02682e+08
197434
1882.22
236.051
12.0764
3068.37
16611
194589
490.305
68.4239
10.4996
1.7577
9.08897
179.634
558.946
12.3978
1.89372
1.06238
1.00098
1.01046
1.95279
13.3069
3.53859e+16
5.03222e+14
2.49241e+12
2.78399e+06
13316.4
185.587
1.62817
1.00953
1.1413
1.42623
1.00001
1.65248
179.678
14103.2
6.09202e+06
1.7203e+12
1.91427e+14
1.14696e+16
100
4.51556e+09
7.89789
1.64872
8.21225
7.12428e+09
1.27839
1.24312
1.32994e+07
455248
2565.85
16.7253
123.571
14.49
3.2532
1.95506
1.99912
12.9913
2.77587e+09
6.74083e+07
87117.8
1.0433
1
1
1
1
