# vtk DataFile Version 2.0
2D-vertex
ASCII
DATASET UNSTRUCTURED_GRID
POINTS 1310 float
0.723132 -5.03798 0
3.17326 -4.78692 0
3.54489 -3.83287 0
2.50107 -2.78364 0
0.228484 -2.67618 0
-0.465155 -4.17448 0
4.07503 -3.78923 0
4.63287 -2.92423 0
3.6737 -1.42849 0
2.63153 -1.76201 0
1.43453 -0.524655 0
-0.263028 -0.0768023 0
-1.0054 -1.36291 0
-1.16144 -1.40411 0
-1.65167 -3.07736 0
-1.12821 -3.95275 0
5.20688 -3.07015 0
6.00426 -2.17247 0
4.14038 -0.674836 0
3.87054 -0.747045 0
2.97608 0.195091 0
1.91078 0.0884112 0
1.19202 3.70563 0
0.343066 3.66631 0
-0.447411 1.77387 0
-1.6402 0.842527 0
-1.52604 -1.05934 0
-2.81348 -1.37065 0
-3.30853 -2.40816 0
-2.99583 -3.11378 0
7.0724 -2.13875 0
7.68098 -1.39859 0
7.47505 -0.0913508 0
5.23665 1.02942 0
5.6931 1.61868 0
3.32021 2.90553 0
2.52862 4.18123 0
1.64383 4.32148 0
0.670003 7.51034 0
-0.908294 7.529 0
-0.544154 4.46229 0
-2.0244 3.49603 0
-3.05253 1.93143 0
-4.00966 1.95083 0
-4.72549 0.531754 0
-6.13012 0.203259 0
-6.40018 -0.862293 0
-4.86171 -2.19667 0
7.88599 0.549834 0
7.52089 1.57765 0
6.76004 1.97939 0
5.97166 4.02563 0
3.59806 5.16794 0
3.50767 6.04639 0
2.03009 7.65153 0
2.55056 8.36477 0
-1.88799 8.9053 0
-1.7734 7.96877 0
-3.00017 6.60257 0
-2.63854 4.44896 0
-4.27076 4.73171 0
-5.63656 3.39521 0
-7.53295 1.87921 0
-7.38222 1.34432 0
8.4261 2.01243 0
8.42602 2.01493 0
6.88464 4.02776 0
7.28567 5.24375 0
5.97648 6.48453 0
6.16664 7.17632 0
5.33047 8.18103 0
5.03033 8.70814 0
-2.6165 11.2128 0
-2.88301 10.846 0
-6.01025 7.85532 0
-5.33339 7.08152 0
-6.04295 5.69091 0
-5.95783 5.52766 0
-8.52284 2.37904 0
-8.36639 2.02358 0
9.94574 2.3677 0
10.2343 3.33639 0
9.40461 4.29549 0
10.5525 4.75635 0
10.1954 6.27508 0
10.3589 6.99344 0
9.3701 11.5992 0
10.29 13.7015 0
-9.55549 12.8457 0
-9.55532 12.8432 0
-9.97388 6.96477 0
-9.67516 6.44595 0
-10.0118 5.80661 0
-9.25703 4.71955 0
-10.0535 3.45145 0
-9.5787 2.47212 0
4.13744 -6.61632 0
5.32847 -6.03217 0
6.15601 -5.59967 0
8.46001 -3.92799 0
9.70507 -2.44761 0
10.9569 -0.0629329 0
11.0473 0.117139 0
11.7098 1.22118 0
12.4187 3.18225 0
12.5971 3.98302 0
12.62 7.51743 0
12.8622 14.2443 0
-13.1528 13.2838 0
-12.5599 6.90161 0
-12.4636 5.61771 0
-12.059 3.07071 0
-11.1565 1.14093 0
-10.2762 0.0528052 0
-9.65425 -0.662688 0
-8.7123 -1.97667 0
-6.72712 -4.06953 0
-4.61219 -5.41802 0
-2.48019 -6.35552 0
0.547765 -7.0857 0
12.4142 8.99674 0
8.31461 9.03446 0
-12.8461 9.38006 0
-9.94779 10.225 0
-0.187022 1.43998 0
1.10422 1.5713 0
-1.77332 3.4704 0
-0.978488 1.75339 0
4.57049 3.14178 0
4.94615 4.07393 0
0.335862 9.12712 0
0.135308 7.99244 0
-1.08106 5.80907 0
-2.25327 5.49018 0
5.97062 4.02789 0
5.07057 5.98194 0
4.07848 6.45566 0
4.05015 7.83426 0
1.98837 9.40383 0
1.98645 9.40223 0
-2.355 9.10713 0
-3.90721 7.28645 0
-3.45358 6.60804 0
-4.40583 5.31848 0
1.57095 -1.16281 0
0.149251 -2.19906 0
6.64508 0.127035 0
5.60074 -1.44735 0
5.23458 1.03083 0
3.19026 1.7826 0
-8.84839 8.62014 0
-5.83207 8.55829 0
3.18776 1.78259 0
1.7396 2.42014 0
-9.26786 4.6551 0
-7.8506 4.06534 0
-0.496664 -4.19162 0
-0.836672 -6.88335 0
14.8629 29.1243 0
17.8053 28.3292 0
1.52674 -4.67117 0
1.59454 -3.21606 0
2.50141 6.39993 0
1.35632 5.35061 0
8.15645 8.56033 0
5.33055 8.18354 0
8.17047 19.3814 0
-0.201591 11.1052 0
-2.42819 -3.35749 0
-3.06301 -6.12807 0
-4.13474 -0.377768 0
-4.99914 -1.57668 0
-5.2715 -5.0526 0
-4.26101 -2.57962 0
0.424296 5.79757 0
-0.472015 5.34742 0
9.37884 4.14907 0
7.81917 3.30264 0
5.83528 -2.7104 0
7.61396 -4.64839 0
2.10618 -7.11079 0
2.08266 -5.08695 0
-5.95092 -1.47697 0
-7.50084 -3.39048 0
-5.216 2.30281 0
-6.51777 1.03384 0
7.73679 0.0496814 0
10.2498 -1.54294 0
-12.3254 4.45926 0
-9.28102 4.67893 0
12.7961 6.03896 0
10.7151 5.77666 0
-2.60641 1.00185 0
-3.4857 -0.37422 0
-9.21746 -1.22925 0
-6.49402 0.465704 0
-3.46064 4.24013 0
-4.18085 2.24189 0
-6.69331 4.26791 0
-6.25876 3.47408 0
8.24351 5.44378 0
8.43234 5.93358 0
-0.965575 10.9334 0
-0.700544 9.77322 0
12.4183 9.00591 0
9.7082 10.2026 0
9.49903 12.4761 0
1.64555 9.99997 0
7.77654 7.18955 0
8.95636 7.93354 0
-7.18518 5.77464 0
-7.53459 6.52389 0
-2.41694 13.2572 0
0.515118 12.4419 0
-9.88442 10.7225 0
-4.07953 10.6628 0
8.95493 7.93561 0
12.451 8.5431 0
-10.668 11.8696 0
-13.2124 12.3068 0
-12.6179 7.88812 0
-9.11298 8.17126 0
12.1923 16.9695 0
9.64543 15.1593 0
7.96875 9.47473 0
5.83425 9.59867 0
-9.11303 8.16874 0
-7.23084 7.49909 0
1.91944 12.9923 0
3.69449 11.3592 0
-4.35631 9.05004 0
-3.59101 8.41667 0
4.39625 11.1231 0
3.54262 9.53986 0
12.7013 10.7009 0
9.89506 10.7445 0
-3.02586 12.8182 0
-4.51208 11.6297 0
-13.6613 24.7685 0
-0.210949 14.0899 0
-6.42132 9.09338 0
-4.37273 10.8591 0
-12.6992 8.60874 0
-9.30145 9.2074 0
5.31752 15.2538 0
7.59436 13.2657 0
-1.36887 12.8435 0
-0.805107 11.1339 0
-10.2033 16.1149 0
-13.4532 15.0667 0
18.213 33.9247 0
1.81428 14.1224 0
-3.06841 15.5719 0
-10.148 16.5253 0
-10.6253 11.198 0
-13.0751 10.4164 0
-6.50125 12.8977 0
-5.93457 11.8156 0
-6.29904 9.85956 0
-7.0924 10.7788 0
12.8743 12.4128 0
10.263 13.0602 0
-11.0485 17.5769 0
-14.0755 17.4306 0
5.59387 10.7095 0
4.41186 11.0683 0
9.61362 14.3559 0
7.63075 13.826 0
3.48831 12.5406 0
6.02224 14.576 0
-2.2471 14.8037 0
-0.812592 15.1235 0
13.5063 18.9532 0
10.7026 20.2026 0
-0.123628 14.0729 0
0.764349 14.7732 0
11.4675 21.9129 0
3.36742 14.6969 0
12.7707 11.5392 0
9.64614 11.9695 0
-8.34416 12.3663 0
-8.3632 11.4908 0
-9.19745 9.55539 0
-7.09395 10.3942 0
-9.80222 15.7531 0
-6.08643 14.7592 0
20.0134 38.1917 0
22.0679 38.4596 0
1.34051 12.3542 0
2.1844 10.8115 0
-3.98486 14.4847 0
-3.84628 13.2049 0
-13.2758 14.3333 0
-9.99781 15.0591 0
-0.618831 16.7345 0
-0.644953 16.7152 0
7.21422 11.6165 0
6.76065 12.5319 0
8.19011 9.98206 0
7.0948 11.3538 0
-10.9804 17.0285 0
-13.6917 15.8332 0
-2.83247 15.5755 0
-1.85983 17.0694 0
1.05357 15.9581 0
2.5755 15.9677 0
5.73145 12.6812 0
5.41531 13.3403 0
-7.31977 16.0563 0
-7.07901 16.5661 0
-8.97368 13.6287 0
-6.29638 13.8714 0
3.35082 14.6531 0
4.17631 13.395 0
-10.4246 19.5757 0
-3.94359 16.8023 0
14.0142 19.8761 0
11.5725 21.0654 0
-16.6846 23.6734 0
-14.1529 23.9253 0
7.67284 15.6102 0
6.88964 14.673 0
12.1807 17.0606 0
8.27876 18.4647 0
3.27281 17.314 0
4.99757 17.9343 0
0.623712 18.7622 0
2.66517 17.7677 0
-1.1623 24.9347 0
-3.78157 23.4339 0
-3.29545 21.7586 0
-4.4964 18.7467 0
-6.11536 13.6266 0
-4.03813 13.0866 0
-9.61837 18.5122 0
-8.08861 17.4789 0
6.96201 22.6647 0
6.28939 19.7495 0
-13.1637 13.6321 0
-9.30197 14.1081 0
-9.24754 14.2509 0
-7.05632 15.2815 0
-0.618888 19.0221 0
-0.368206 18.6956 0
14.4194 28.4745 0
1.74806 22.3456 0
16.751 24.9156 0
14.5749 25.5312 0
-15.0734 19.2558 0
-12.2718 20.1119 0
-5.30382 15.1351 0
-5.1521 16.4667 0
7.09239 16.4977 0
5.9734 16.4904 0
0.774143 16.4064 0
1.3738 17.4925 0
9.82217 14.8182 0
12.7104 15.2264 0
12.1771 17.0262 0
7.66579 15.9514 0
-11.9341 21.122 0
-4.48252 19.1835 0
-2.40542 18.1221 0
-3.57412 17.9686 0
3.12598 22.655 0
3.71822 21.9585 0
-5.71222 16.9361 0
-5.6141 18.1488 0
3.28915 16.7065 0
5.32548 15.8292 0
-2.11602 21.6674 0
-0.576631 23.1104 0
1.95474 28.0321 0
12.0909 28.8748 0
-18.808 40.1158 0
-20.3871 39.6919 0
-15.6145 52.0463 0
-2.76883 24.4228 0
-14.2077 17.6649 0
-12.043 19.752 0
-1.96672 18.929 0
-3.55577 19.8736 0
-7.32764 19.6844 0
-5.8638 20.0838 0
12.6044 24.813 0
11.4444 27.959 0
4.21052 20.2143 0
5.76077 20.4901 0
10.6663 20.3446 0
7.7108 21.4321 0
12.4744 17.4946 0
10.4751 19.9381 0
-13.6951 23.1388 0
-3.87756 21.1201 0
15.8265 23.1556 0
14.0987 24.7784 0
1.71625 19.8023 0
2.87493 19.0356 0
-15.7821 20.6832 0
-13.687 22.0623 0
-2.02808 26.5462 0
3.60598 23.9238 0
-0.041905 20.5006 0
1.38022 20.8576 0
-8.08072 17.633 0
-6.76435 18.6274 0
7.36099 17.6821 0
5.85806 18.5467 0
-1.63185 20.8813 0
-2.36548 19.6617 0
12.1733 17.038 0
7.51422 17.2215 0
-2.84115 24.0293 0
-1.59092 22.8763 0
-5.80796 20.7468 0
-4.85114 21.4066 0
-4.68128 23.6027 0
-5.28005 22.7516 0
-14.0816 17.4386 0
-10.3299 19.1691 0
4.84243 23.929 0
5.42298 22.7208 0
-0.340504 29.1502 0
12.4003 57.1659 0
-8.1299 20.5897 0
-7.86726 21.7269 0
4.42937 61.274 0
4.37574 63.0758 0
-10.4324 26.6422 0
-8.46486 29.1088 0
8.80265 19.7925 0
7.57144 21.1068 0
14.5006 20.7422 0
11.9025 22.2055 0
5.09592 22.123 0
5.94311 20.9105 0
1.77422 20.5217 0
3.41891 21.0448 0
3.03329 24.5416 0
5.10184 28.1489 0
3.99519 19.4226 0
5.11005 18.3331 0
1.33203 22.7643 0
1.64801 24.0955 0
12.234 17.1726 0
8.77994 19.6823 0
-7.19521 34.6795 0
-4.95661 30.9238 0
-14.2502 26.232 0
-17.0481 25.6684 0
-0.451037 20.9944 0
0.0539373 22.4453 0
-7.30395 21.9151 0
-7.00817 22.7671 0
-9.62912 18.8786 0
-7.32775 19.6819 0
8.31277 24.909 0
9.18363 23.0504 0
-16.4452 22.4546 0
-13.9433 22.7539 0
-7.45982 23.4684 0
-7.49607 25.0663 0
4.98539 32.2344 0
8.76107 30.6377 0
-14.6955 28.088 0
-10.2249 27.659 0
8.19878 25.4716 0
5.52776 26.9961 0
2.27095 27.7328 0
1.16055 25.8901 0
-4.96581 25.3689 0
-4.82475 25.4665 0
19.9153 37.0367 0
21.842 36.3924 0
-0.308443 24.1667 0
1.02565 24.6286 0
-9.48412 22.4763 0
-9.64074 22.8786 0
6.7122 36.7837 0
11.1576 46.0135 0
-3.43916 25.2138 0
-2.91367 26.3885 0
14.3608 26.0473 0
12.034 26.6023 0
-18.4283 44.471 0
-20.4269 44.3472 0
-17.4295 42.1795 0
-8.69745 33.9504 0
9.42779 22.44 0
8.95412 21.5662 0
-10.721 24.7903 0
-9.12451 23.5625 0
12.3319 24.3903 0
9.92072 24.3643 0
-1.89942 36.2048 0
-0.578379 30.7269 0
-9.75679 20.4417 0
-10.2845 21.383 0
17.1863 26.2498 0
14.9115 26.7485 0
14.9375 21.4519 0
12.654 23.1845 0
17.051 32.0541 0
13.3793 32.6312 0
-1.96274 29.1289 0
-1.62597 27.5293 0
-16.3288 33.0225 0
-18.3585 32.1276 0
3.16522 25.5713 0
2.04707 26.3199 0
7.88147 29.725 0
6.88619 26.683 0
5.4418 24.5204 0
4.54889 25.6514 0
-6.38686 28.3717 0
-5.83416 29.0516 0
7.4676 23.3526 0
7.28256 23.9145 0
6.03636 29.8447 0
6.6534 32.3468 0
-14.2104 26.3542 0
-11.0878 26.4063 0
18.5291 33.2803 0
20.7299 32.7745 0
-9.01342 25.9179 0
-6.22346 27.7484 0
-14.7769 35.5044 0
-10.9936 32.5257 0
3.44822 31.589 0
3.01303 31.887 0
-16.8674 24.7437 0
-13.8739 25.1091 0
-17.3034 26.9346 0
-15.0373 27.3095 0
[...]
CELL_DATA 656
SCALARS cell_division_count float
LOOKUP_TABLE default
1
0
1
0
0
0
1
0
0
1
1
1
1
1
1
1
0
1
1
1
1
1
1
0
1
1
1
1
1
1
1
1
2
4
3
1
1
0
0
1
1
0
0
0
1
2
3
0
1
0
0
1
1
1
1
1
0
0
3
0
1
2
3
1
1
1
1
1
1
1
2
2
1
1
1
1
2
1
1
1
3
1
1
2
9
1
1
1
1
1
1
1
1
1
1
1
1
1
1
1
1
1
2
3
5
2
1
3
5
2
2
2
5
3
2
4
2
3
5
5
6
3
3
6
3
4
6
9
3
5
4
4
8
5
6
6
5
4
5
14
5
5
5
7
5
4
6
4
10
5
3
4
6
6
6
7
6
6
11
7
8
7
6
7
8
18
11
6
8
9
4
7
8
13
6
7
7
8
8
3
6
12
10
11
9
7
11
13
9
16
8
11
10
11
9
9
5
14
6
10
8
13
10
10
8
11
6
10
11
14
8
11
13
11
9
12
9
8
9
11
13
9
11
6
16
13
11
12
11
13
8
13
13
12
15
14
10
8
12
13
14
11
12
13
17
9
14
15
15
12
7
9
14
15
11
14
14
14
13
13
12
12
8
12
16
14
8
9
17
14
15
17
14
14
13
11
14
14
14
14
14
15
14
8
15
9
9
14
13
13
14
12
12
10
12
12
14
15
7
13
13
15
11
14
14
14
8
13
15
12
16
15
15
15
13
14
15
16
12
15
19
10
11
14
16
14
16
17
14
15
12
7
13
13
19
14
15
13
16
16
13
16
15
12
15
14
17
13
10
9
14
18
13
15
14
15
11
17
15
15
15
15
14
13
13
15
14
20
16
15
17
15
15
15
17
8
16
15
15
16
13
14
10
19
16
17
12
16
18
14
18
16
15
9
16
15
14
14
21
16
18
14
13
15
21
18
14
17
8
11
11
14
15
12
17
15
15
16
17
15
16
15
16
16
16
19
16
15
15
17
20
16
19
17
17
17
15
19
14
16
19
11
11
13
13
16
17
18
19
19
17
16
17
17
17
15
17
16
17
16
19
12
11
16
17
17
20
13
16
19
15
16
15
17
20
17
19
14
18
20
17
17
18
20
19
14
14
17
16
16
16
17
19
16
18
15
17
17
17
13
17
18
21
17
18
17
19
21
17
16
20
20
20
19
20
16
11
21
17
18
17
15
19
17
16
17
19
17
17
18
12
19
13
18
17
18
17
18
18
20
17
17
13
17
13
17
21
19
17
19
21
21
19
20
16
17
20
20
12
16
14
16
19
10
18
16
19
17
20
20
17
20
19
18
21
20
17
20
18
17
12
14
16
20
20
17
19
20
21
18
19
19
18
16
17
16
18
18
19
20
19
11
19
19
13
14
21
19
22
15
19
20
20
13
19
20
20
20
19
17
19
18
21
21
17
13
19
20
20
17
21
18
21
20
20
20
21
20
13
17
20
13
20
18
20
20
20
17
13
17
22
21
21
20
21
19
SCALARS cell_time float
LOOKUP_TABLE default
2681
2.22229e+13
2701
4.48239e+13
2.67348e+11
1.25633e+10
2711
2.68224e+09
9.19769e+11
2701
2701
2691
2661
2711
2631
2671
1.22869e+06
2711
2681
2711
2711
2611
2651
26493.4
2711
2711
2711
2711
2711
2601
2661
2601
2561
2301
2451
2551
2691
1.00108e+18
2.94533e+15
2661
2651
107793
4055.76
2767.34
2641
2541
2341
2758.01
2651
5409.01
3026.18
2631
2671
2681
2691
2661
1.12104e+13
23876.3
2131
4747.96
2661
2581
2401
2711
2711
2711
2711
2711
2711
2711
2591
2471
2711
2701
2701
2701
2531
2691
2691
2691
1831
2681
2681
2541
1461
2681
2671
2671
2661
2661
2661
2661
2661
2651
2651
2651
2641
2631
2631
2611
2601
2601
2591
2461
2281
2561
2551
2401
2181
2541
2541
2541
1831
2121
2531
2151
2471
2461
2191
2151
2041
2421
2401
2031
2401
2121
2131
1821
2341
2191
2321
2321
1101
2131
2021
2051
2251
2031
2221
1051
2191
2191
2181
1881
1311
2151
1921
1901
1551
2131
2121
2121
2121
2111
2051
1851
2041
2031
1391
1461
1381
1841
1431
1771
1841
371
1521
1921
1911
1461
1901
1881
1881
731
1241
1711
1851
1571
1841
1831
1561
1251
1701
1461
1781
1771
1401
1191
881
101
1521
1571
1691
1281
1461
1261
1661
1051
1641
1641
1041
1061
1611
1581
1571
1571
1561
1551
1531
1071
1521
1511
791
1501
721
951
1461
1241
1461
1461
1181
1461
1451
1431
611
611
1401
1401
1391
1171
1381
931
921
891
891
1091
1321
541
1301
1291
461
1291
911
21
131
1261
1051
901
371
1251
941
1031
611
931
451
931
931
931
1001
1171
991
991
621
951
571
671
1101
1101
391
1091
521
151
1071
871
1061
381
1061
1051
1051
401
1051
571
1051
1041
911
851
1031
911
911
1001
551
991
981
971
951
951
571
801
941
941
931
931
541
931
931
931
741
921
651
911
371
501
911
651
911
731
901
621
891
891
91
161
881
711
381
871
251
241
701
371
221
841
41
831
181
811
801
791
601
331
781
551
771
761
581
761
401
741
741
581
741
111
731
531
731
471
91
381
541
711
371
561
701
431
341
321
671
71
531
651
191
651
521
651
321
621
621
621
621
611
611
611
611
91
491
21
131
601
141
591
101
341
581
581
571
571
571
241
31
181
101
561
71
561
51
331
551
401
541
251
541
541
541
391
281
531
401
531
401
521
521
521
281
381
511
41
161
501
501
351
11
491
151
221
231
301
471
61
461
461
201
451
451
311
431
331
151
301
121
101
241
111
401
211
401
401
401
171
391
241
91
391
381
381
381
221
121
91
381
271
371
371
371
61
11
221
71
131
361
41
241
351
221
21
221
91
171
51
341
131
331
181
201
331
31
321
321
221
111
311
141
301
91
301
301
11
151
1
281
281
71
71
131
61
41
251
251
31
241
121
241
81
121
241
241
41
131
241
231
231
231
121
21
91
221
221
221
61
221
31
141
221
11
211
211
211
1
201
191
81
91
61
181
81
181
181
71
1
171
171
171
171
171
161
161
161
161
151
151
31
151
31
151
141
31
21
141
141
21
131
131
131
131
131
31
11
121
21
1
121
121
121
111
111
111
101
101
101
101
101
91
91
91
91
91
91
91
1
11
81
81
81
71
71
71
71
71
71
61
61
61
61
61
51
51
41
41
41
41
41
31
31
31
31
31
31
31
31
21
21
21
21
21
21
21
11
11
11
11
11
11
1
1
1
1
1
SCALARS cell_area float
LOOKUP_TABLE default
3.24157
3.2996
3.29287
3.35559
3.35085
3.34302
3.32595
3.37387
3.34822
3.28116
3.336
3.28151
3.3856
3.31841
3.30529
3.32937
3.39785
3.28799
3.3455
3.39676
3.39121
3.33867
3.33859
3.37102
3.35726
3.37474
3.43891
3.40101
3.39032
3.32852
3.24617
3.29582
3.35035
3.33592
3.44341
3.24883
3.34432
3.2524
3.26085
3.24832
3.23638
3.27745
3.26116
3.27781
3.21914
3.28317
3.25449
3.26219
3.25837
3.24763
3.26737
3.27298
3.21624
3.25693
3.24456
3.24198
3.20924
3.21636
3.26436
3.19548
3.24594
3.30499
3.26755
3.27967
3.33644
3.28399
3.39788
3.35067
3.27875
3.35538
3.45109
3.35021
3.35595
3.2862
3.24777
3.27389
3.34049
3.35046
3.23057
3.22189
3.21724
3.25823
3.33413
3.33022
3.36905
3.2224
3.29609
3.25204
3.36891
3.28652
3.22424
3.2035
3.21564
3.30314
3.25111
3.24397
3.25779
3.32339
3.26273
3.2994
3.28892
3.26239
3.4007
3.23053
3.29155
3.23907
3.32738
3.38327
3.29005
3.27797
3.25681
3.27094
3.2714
3.29197
3.24456
3.31508
3.35538
3.40449
3.25316
3.42331
3.30187
3.34769
3.27042
3.3471
3.4053
3.2583
3.44047
3.39611
3.21431
3.27878
3.33371
3.2047
3.28171
3.36975
3.31275
3.35336
3.36533
3.25899
3.36396
3.30686
3.24745
3.27961
3.31435
3.27275
3.23756
3.3469
3.40003
3.2672
3.37906
3.31214
3.29878
3.22985
3.37221
3.3603
3.38261
3.38603
3.33746
3.30765
3.35473
3.26892
3.25548
3.41001
3.28324
3.31885
3.36843
3.36223
3.37028
3.3276
3.29939
3.36588
3.26925
3.3244
3.43172
3.29357
3.27138
3.22753
3.36054
3.36686
3.39218
3.23703
3.29624
3.30965
3.43712
3.3911
3.39004
3.31651
3.38778
3.40555
3.30461
3.3159
3.27278
3.41191
3.40393
3.28515
3.35583
3.26981
3.23184
3.28937
3.23624
3.34291
3.25664
3.34413
3.42142
3.35296
3.30056
3.39273
3.287
3.3507
3.38627
3.3691
3.30695
3.39417
3.40066
3.35762
3.26202
3.3199
3.34221
3.27181
3.37386
3.37192
3.44928
3.35194
3.40315
3.27504
3.38466
3.29064
3.39989
3.33142
3.30645
3.37216
3.21642
3.3613
3.43661
3.26376
3.35013
3.41655
3.43094
3.27986
3.39294
3.38722
3.29321
3.37445
3.26708
3.32823
3.3407
3.33875
3.38379
3.29656
3.31652
3.31774
3.28902
3.24499
3.3321
3.37938
3.31045
3.39464
3.32002
3.35294
3.40794
3.34085
3.34699
3.30681
3.23444
3.36764
3.38184
3.40925
3.27198
3.28128
3.38939
3.37389
3.37865
3.32596
3.37996
3.39089
3.38311
3.31579
3.34467
3.33762
3.35578
3.30612
3.26301
3.35119
3.36928
3.26029
3.38096
3.24612
3.29465
3.29227
3.35244
3.34904
3.36364
3.30853
3.36905
3.28523
3.38947
3.35648
3.37384
3.39763
3.30646
3.39482
3.33558
3.38284
3.34226
3.34914
3.34971
3.32925
3.25625
3.40082
3.38365
3.30983
3.39543
3.32675
3.31743
3.33671
3.39727
3.3136
3.40111
3.37688
3.35621
3.35103
3.26906
3.32732
3.29082
3.34399
3.37511
3.3537
3.31464
3.28522
3.37554
3.31898
3.29611
3.27821
3.30146
3.336
3.32704
3.37649
3.35196
3.29649
3.37859
3.36887
3.34154
3.3146
3.2814
3.29791
3.31939
3.35188
3.33202
3.34176
3.24987
3.34107
3.42259
3.30112
3.33394
3.34643
3.31562
3.35815
3.28312
3.35799
3.34926
3.35224
3.31063
3.31557
3.35959
3.30319
3.30249
3.28838
3.33934
3.32063
3.38239
3.34204
3.36034
3.32032
3.39997
3.35447
3.33433
3.2729
3.36932
3.30206
3.37702
3.36483
3.30656
3.30429
3.32202
3.34359
3.33931
3.31057
3.30981
3.36435
3.3737
3.30358
3.36789
3.3187
3.32653
3.31086
3.29046
3.36804
3.30941
3.25977
3.3547
3.31324
3.35031
3.31225
3.33426
3.37674
3.36594
3.32441
3.33993
3.30091
3.28753
3.30155
3.30674
3.3583
3.36336
3.30318
3.3502
3.31166
3.32464
3.34566
3.34579
3.35492
3.30584
3.36322
3.34564
3.42496
3.37057
3.34555
3.36635
3.3515
3.37912
3.36598
3.27526
3.35838
3.35297
3.32649
3.33102
3.33777
3.30856
3.34253
3.32088
3.31852
3.30852
3.29194
3.25303
3.30827
3.30009
3.30343
3.33588
3.35567
3.3577
3.38123
3.33001
3.3565
3.29093
3.36325
3.37923
3.31013
3.31904
3.32414
3.35315
3.31482
3.33416
3.28566
3.31392
3.38282
3.34545
3.39414
3.31127
3.32537
3.31916
3.37755
3.29812
3.37705
3.32705
3.38749
3.30345
3.31404
3.30602
3.31997
3.30784
3.3656
3.34592
3.27354
3.34225
3.34092
3.29964
3.3311
3.31339
3.28174
3.29093
3.32107
3.38539
3.31806
3.35031
3.30941
3.34891
3.3536
3.32229
3.31401
3.31459
3.31208
3.31886
3.33232
3.34016
3.342
3.35238
3.33217
3.34954
3.3572
3.37879
3.34185
3.34803
3.32138
3.30921
3.29631
3.27226
3.33495
3.25719
3.33554
3.28206
3.34619
3.3411
3.31623
3.37815
3.37622
3.37584
3.32988
3.33111
3.33025
3.30718
3.30476
3.30629
3.31574
3.31005
3.37773
3.32695
3.33354
3.33756
3.31825
3.35246
3.29443
3.40677
3.33881
3.27808
3.35045
3.31267
3.3254
3.35422
3.36593
3.37071
3.3268
3.356
3.30302
3.38969
3.35219
3.3618
3.34573
3.33411
3.33048
3.31531
3.33337
3.30951
3.32067
3.29198
3.24618
3.32181
3.33035
3.30478
3.34385
3.35163
3.29951
3.32773
3.32074
3.38812
3.34222
3.33412
3.30729
3.3721
3.38848
3.32862
3.26575
3.30965
3.25941
3.29588
3.35472
3.30455
3.29844
3.34953
3.33314
3.36315
3.34338
3.34566
3.31288
3.33223
3.3183
3.32568
3.2803
3.29561
3.33295
3.34544
3.32731
3.35002
3.26129
3.3441
3.35927
3.32026
3.32836
3.34174
3.3646
3.302
3.35432
3.30976
3.30806
3.32912
3.31089
3.31413
3.37432
3.29348
3.36021
3.29353
3.32582
3.34552
3.29185
3.31765
3.3271
3.27999
3.3127
3.24939
3.33083
3.31586
3.29281
3.30789
3.28593
3.33692
3.30226
3.33001
3.32731
3.33071
3.3588
3.31737
3.32276
3.34294
3.30149
3.3234
3.28999
3.29552
3.32845
3.28936
3.32399
3.31906
3.35281
3.32917
354
449
3.30206
179
495
SCALARS cell_perimeter float
LOOKUP_TABLE default
6.92889
6.94225
6.96424
7.19634
7.12764
6.82031
7.07965
7.65289
6.93454
6.92757
7.38955
7.00283
6.79887
7.24584
7.04408
6.79385
7.17561
6.96999
6.92226
6.97682
6.94286
7.27313
7.24177
7.58288
7.6015
6.95884
7.97206
7.14737
6.90451
7.06998
6.94887
7.05148
8.18168
7.03433
7.12095
7.33974
7.89751
7.51972
7.82643
7.63848
8.26881
8.66248
8.18867
7.76181
7.38228
9.61692
8.03367
7.65464
8.04862
7.65661
8.12545
8.44187
7.78369
8.0705
7.67225
7.21538
7.43662
7.38977
8.78793
7.32437
7.72731
9.71977
8.6232
7.0366
7.1528
7.24287
6.90026
7.08988
7.18553
6.86531
7.78845
7.07326
7.17129
7.07809
7.24049
7.21863
7.78677
7.27345
6.9361
7.87155
8.24413
6.79029
7.02193
7.85284
7.5181
7.97892
6.82269
7.97949
7.08795
6.99799
7.79715
7.31361
7.65233
7.13127
7.93168
7.97206
7.36418
6.94441
8.22449
7.1901
7.17082
6.94397
7.11474
8.06077
7.22044
7.03276
6.85418
7.46292
7.31725
8.59987
8.6654
8.57399
10.1857
7.21687
7.2399
7.05818
6.91665
7.38411
8.26673
7.12733
7.64946
7.28677
8.9544
7.17439
7.26556
8.56746
7.2278
7.11635
7.72151
7.02615
7.2847
7.79247
8.18006
7.32778
7.3141
7.05974
7.04953
8.14326
6.94442
7.30986
8.2134
6.91342
7.57611
7.56461
7.34214
7.23188
7.21453
9.21394
7.0661
7.33942
7.3103
8.18911
7.08692
7.14671
6.81799
6.83901
8.01514
6.99492
7.55294
8.06937
7.67413
6.82538
10.1432
7.32639
7.11766
6.88003
6.99098
7.15907
7.42903
7.13686
9.41982
7.85742
7.14177
7.43572
7.44412
8.1742
6.99689
7.11106
7.0045
7.98784
10.9424
6.96228
6.93952
7.06436
6.89934
7.34527
6.92118
6.91248
7.33453
7.01072
9.44307
7.02306
7.31464
7.3587
6.91961
7.21581
8.36237
7.30903
7.51068
6.97804
8.386
7.04153
7.20706
7.04354
7.0576
6.88984
10.5249
7.0592
6.93414
6.9357
10.0062
6.91663
7.03672
7.05152
7.31524
7.029
7.68282
8.17932
7.00824
6.99002
6.94812
7.03469
7.02496
9.61994
7.39512
8.12385
7.08416
7.10222
7.42075
7.10571
7.65707
7.15263
7.11807
7.3241
7.14665
6.95384
6.95398
7.3779
6.92313
7.06793
6.85252
6.94609
7.53914
7.44017
7.00143
6.94027
6.83189
7.16225
6.86173
7.01687
7.88235
8.14576
6.82725
7.11463
7.28205
7.31396
7.13373
7.36787
6.91188
7.1296
7.34672
7.62285
7.43508
7.17419
7.12743
6.94212
8.02317
7.83472
6.85782
7.14246
7.01655
6.97379
6.92458
7.6287
6.97302
7.25776
7.01438
7.38931
7.44091
6.83713
7.4339
6.93979
6.97705
8.55708
6.80151
7.30731
8.39879
7.41264
7.17467
7.05968
6.94713
7.66425
7.30323
7.56068
7.13219
6.95213
7.04301
7.25793
8.23802
7.02383
7.12458
6.99534
9.03864
7.23978
7.08386
7.12482
7.93069
7.07502
7.07275
7.68699
6.94789
7.46287
7.01097
6.82655
7.26815
7.14918
6.99548
7.09646
6.83247
7.12686
7.14483
7.65797
7.66484
7.08011
6.8919
7.21381
6.97263
7.18546
6.91194
7.00721
7.27998
7.50835
7.10193
7.02948
6.97779
7.0516
7.6621
7.36636
6.98231
7.2757
7.07948
7.01137
7.28004
8.38184
6.99694
7.18715
7.05206
6.94636
7.49733
9.46671
7.47948
6.94229
7.42344
7.11915
7.20428
6.90704
7.14706
6.86875
6.93681
6.9658
6.93712
6.95474
6.86804
7.13026
7.29536
7.07323
7.13315
7.0199
7.12466
7.0134
6.92274
7.09313
6.93821
7.08322
6.89009
7.63467
7.93856
7.0599
7.3909
7.01485
8.70292
6.83664
7.46833
6.84536
6.8648
6.94381
7.12019
7.09086
6.83674
7.04647
6.84692
7.01874
6.85937
8.87729
6.99378
7.00972
7.1197
7.31573
6.75093
6.89148
6.94677
6.98408
7.417
6.93151
6.91628
6.96622
6.90752
7.14138
7.55152
7.28509
8.4915
7.00164
6.97709
7.62812
6.96102
6.9628
7.14371
6.87782
7.10533
6.9854
7.04013
6.87251
6.92898
7.17028
6.95475
7.25821
6.8518
7.39344
6.8573
6.88668
7.00733
6.98208
6.9972
6.88241
6.89072
6.85526
6.99697
7.00733
6.82373
7.04458
6.91105
7.14864
7.30528
7.67621
7.10971
6.87514
6.90258
7.09417
6.98215
6.82739
6.94552
6.83432
6.93044
6.81655
7.01167
7.01831
7.10354
6.99091
7.02318
6.98917
7.06666
7.39722
7.33517
6.85361
6.92486
6.85633
6.96612
7.34267
7.42988
6.98348
6.93133
6.86698
7.21743
7.41671
6.84876
6.78457
7.08286
7.3558
6.87826
7.14163
6.85028
6.916
6.89038
6.89764
7.09749
7.1582
7.38314
7.56267
7.02743
6.8921
7.07986
7.07254
6.83753
6.97178
6.82254
7.6293
7.00815
7.00362
6.84749
7.82118
6.95584
6.98154
6.91563
6.83659
7.00237
6.87858
6.91429
6.89
7.02932
6.89806
7.13765
6.91329
6.94541
7.06047
6.97732
6.87048
7.33482
6.96098
7.20623
6.88043
7.00333
7.24818
6.88651
7.02092
7.44321
6.95104
7.16143
6.99383
6.95452
7.06684
7.11497
6.93222
7.39422
6.86131
6.89287
7.05203
6.99165
6.92695
7.39569
7.07107
7.26142
6.8837
7.43588
6.90955
7.12597
6.8726
6.73883
6.90345
7.01831
7.19089
7.06608
6.96205
7.10301
7.03013
6.80645
6.88584
6.90675
6.85893
7.15064
6.91123
7.28094
6.90632
7.48682
7.34057
7.06744
6.9612
6.95574
6.87846
7.11964
6.92718
6.8454
7.02246
6.92905
6.83096
6.86053
6.83031
6.93873
6.90816
7.00999
6.9545
7.15753
7.32103
6.93483
7.15781
6.93877
6.932
7.21158
6.86686
6.83377
6.88476
6.85485
7.02608
6.87673
6.945
7.04007
7.02167
6.93123
6.9147
6.92619
6.9002
6.86335
7.37114
6.89136
6.84723
7.15835
7.16595
6.81605
6.89772
6.95488
7.44253
7.04768
6.99152
6.84517
7.32564
7.27001
6.79217
6.93284
7.02803
7.18122
7.0663
7.28812
7.02353
6.88418
6.86654
7.22297
7.12636
7.2118
7.05838
7.17509
6.96857
6.96111
6.93836
6.91749
7.04993
6.9831
6.83527
6.82171
6.96869
7.36798
7.00948
6.93469
7.29957
6.8428
7.02529
6.93065
7.18462
6.92643
6.91891
7.42665
6.99258
6.83284
593
208
3.3187
193
509
SCALARS cell_frequency_modifier float
LOOKUP_TABLE default
3.09662e+18
6.76317e+17
3.84017e+17
3.57416e+15
1.17295e+15
3.56786e+14
1.52347e+13
6.41915e+13
1.97461e+15
9.7535e+16
8.0954e+13
5.57211e+15
3.71731e+11
1.12045e+13
1.0312e+16
1.41557e+15
2.5528e+13
2.62629e+14
3.48225e+11
7.25949e+09
3.65261e+11
4.70152e+12
3.74755e+13
3.09568e+12
3.01245e+11
2.94656e+10
4.68415e+09
1.17678e+10
1.71618e+11
1.3604e+12
6.87536e+14
2.05076e+13
1.91733e+10
3.56762e+09
2.3111e+08
3.10851e+13
5.02761e+11
1.21009e+19
4.71546e+18
1.07165e+18
3.14752e+16
8.62296e+15
3.77208e+15
2.46716e+14
6.70885e+13
1.77203e+12
3.06392e+11
1.84079e+13
7.33512e+13
3.49001e+15
7.77044e+15
1.85655e+16
1.67899e+18
6.86316e+18
10000
10000
4.79466e+17
1.22204e+15
3.49159e+09
1.21245e+15
5.19217e+17
3.70862e+11
8.11404e+11
1.28639e+16
1.48021e+13
7.40952e+14
5.82663e+09
6.57703e+10
6.60488e+13
4.11593e+10
1.15045e+09
3.38596e+09
9.05558e+10
8.41018e+16
3.10941e+16
2.00084e+15
1.66859e+10
3.5807e+12
4.53306e+14
10000
2.74772e+09
3.55463e+18
1.16385e+11
1.16466e+10
252086
6.27076e+18
4.74651e+16
2.27744e+18
5.08209e+10
1.48495e+14
3.30957e+18
10000
2.41775e+17
1.69939e+15
8.62696e+16
2.17777e+14
1.53367e+13
1.14187e+14
5.27055e+16
4.64757e+14
7.02667e+14
4.98623e+13
1.19969e+09
3.81309e+11
1.74315e+10
1.06807e+13
1.22531e+11
1.24929e+08
2.67704e+11
4.11964e+12
3.67747e+10
4.88469e+12
1.64757e+09
3.5956e+11
8.18226e+12
1.3557e+09
1.43859e+10
8.48017e+08
1.26401e+11
2.49851e+07
1.3094e+09
3.35275e+09
1.98999e+12
4.39598e+07
1.91634e+08
1.68936e+09
8.33316e+06
2.83581e+06
1.10991e+11
7.4553e+10
1.50286e+09
1.89599e+10
1.58748e+06
3.69779e+08
1.47432e+08
2.12688e+08
4.16724e+07
6.91953e+07
7.00112e+07
946104
5.02909e+10
8.35625e+10
1.72581e+10
3.44725e+09
3158.27
6.80272e+08
3.17714e+07
8.29852e+09
15172.2
1.53224e+09
1.84137e+11
8.26535e+08
7.77484e+06
1.80264e+07
5.34784e+07
6.76222e+06
1.62992e+08
1.17883e+09
420338
3.09821e+07
7.24646e+06
7.68254e+06
2.67914e+08
1.41137e+07
1.8782e+06
5.08247
49544.7
3.72665e+08
5.51396e+08
75897.2
1.66296e+10
9.50678e+07
1.12213e+06
159145
1.19545e+06
1.37631e+08
1.01028e+07
2.04361e+06
3.01333e+06
6.99928e+09
9.92544e+08
2.32141e+06
492199
73592.9
1.69958e+06
4.39686e+07
55028.3
5693.12
434.047
2.76406
2.00038e+08
218981
424253
1.35748e+06
500625
2.47553e+07
1.43002e+08
1.0622e+07
2.78887e+06
1.38985e+06
3.1885e+07
4323.32
266169
2.40564e+06
1.93076e+08
125761
5.36171e+08
49660.5
179469
12515.3
2.75099e+07
28197.3
211.501
177023
159.277
8185.23
291787
1.56208e+07
116866
274920
6779.23
1.37275e+06
19050.5
1.85444e+08
55.5103
33846.4
66445.5
151039
3.12297e+07
21451.8
1.69402e+07
24258.9
503.982
476095
4269.75
1677.68
8780.11
5410.89
18047.1
33845.2
3019.81
5552.35
644678
1.53103
5.57538
86435.8
16241.1
1.73118e+06
108.49
466417
523849
9.32327e+06
110.067
357.276
99.1166
1927.96
2617.26
10841.2
884.336
29360.3
447.175
97859.9
30768.5
3267.17
37.6069
75.7063
3.08412e+06
818762
3.92067
1029.68
11.3396
2.67465
4846.13
331.732
6083.85
2.86798
9777.31
31998.6
76718.6
20.5356
4.47597e+06
94.0173
1744.24
5.65169e+07
643.485
102.183
4.24463e+06
229293
261.326
4778.98
140.592
114195
741.897
365195
1009.76
4688.12
248.793
186.128
37735.9
329.317
16230.3
582.921
44.7655
3312.71
2132.24
10508.3
87657.4
608.716
60.5629
12328.8
3.23556
86.4799
2434.02
1008.95
193.461
369.427
1818.46
100.363
1886.34
1719.57
116.938
6.4525
181088
104.559
5.20265
669.63
16.8424
974.422
162.02
41.7408
109.416
16106.4
101.214
145.854
4.12307
250.731
222.041
93110.3
150.032
4.70135
32.9977
56.451
110243
87097
139.624
224.283
21.1074
93.3519
19484.1
880.315
60.4677
199.17
660.529
82.2825
611.161
23.4509
100.114
11.2152
51.344
94.6884
4.39064
156.869
151.46
160.743
216.378
497.803
84.9567
1.48821
19.8902
178.067
2.56221
3185.37
10.4373
41.6189
19.6592
49957.3
234.292
4271.25
32.1927
93.4943
6443.16
21203.9
58.4696
1.61288
29.3099
3.48014
4.38472
123.995
0.848816
9202.05
1.85595
43.9983
90.0651
3416.15
17432.6
156.422
1975.58
142.182
0.631754
8.36683
0.538894
279.623
0.779576
26.7778
0.489994
8.25207
184.328
4309.58
9190.98
231.372
1191.38
16.374
51.6148
1199.42
6.15651
371.201
12.8426
30.3363
26.5382
28.267
717.306
11.8152
3.19603
5.15563
22.4455
0.724207
0.858174
33.0311
7.37865
5.33306
121.551
9.67634
1.02025
5.53233
12.5949
1.76061
283.065
2.24014
39.5029
25.1599
6.9709
1681.15
166.516
35.0733
149.967
175.995
2.37661
6.49735
0.684392
1.04252
8.34371
0.485694
1588.7
2.31965
18.982
63.893
62.5156
2.22206
11.5362
15.3005
1.28512
1869.08
4.43303
6.76039
12.5063
3.19277
4.56398
1.41079
16.1867
2.43227
3868.85
6.05792
17.7597
0.384261
101.212
2.79725
34.7325
1.56064
8.75353
0.402721
1.84395
134.839
4.7958
1.3008
101.752
1.37946
7.17393
104.655
4556.29
6.36973
6.28902
5.90787
2.52489
39.3972
0.771513
3.40794
35.0074
12.2775
5.2406
24.3328
4.04958
4.96846
0.966277
2.40048
4.19828
1.1141
1.00163
0.43737
3.16919
2.16634
0.562428