# vtk DataFile Version 2.0
2D-vertex
ASCII
DATASET UNSTRUCTURED_GRID
POINTS 384 float
0.217087 -2.06666 0
2.73612 -1.90384 0
3.13961 -0.9858 0
2.15696 0.089994 0
-0.179078 0.297163 0
-0.935181 -1.1371 0
3.71088 -0.962481 0
4.30324 -0.118324 0
3.43719 1.36372 0
2.32519 1.06274 0
1.17014 2.28447 0
-0.562784 2.84301 0
-1.36725 1.60728 0
-1.58561 1.56003 0
-2.11844 -0.00258343 0
-1.63628 -0.885159 0
4.88673 -0.287823 0
5.76578 0.592761 0
3.99522 2.0798 0
3.65729 2.0058 0
2.84503 2.94815 0
1.69728 2.8925 0
1.17796 6.28142 0
0.11323 6.25591 0
-0.649155 4.48888 0
-1.98848 3.72769 0
-1.96067 1.94288 0
-3.31135 1.675 0
-3.81012 0.733617 0
-3.52315 0.0240768 0
6.85604 0.584604 0
7.52901 1.34686 0
7.35224 2.64822 0
5.19451 3.73765 0
5.71015 4.33133 0
3.35779 5.56024 0
2.68571 6.71357 0
1.65709 6.89256 0
0.630582 9.6909 0
-1.11176 9.65116 0
-0.738356 7.05932 0
-2.47868 6.22704 0
-3.4555 4.87471 0
-4.53515 4.94359 0
-5.23159 3.70652 0
-6.6815 3.4404 0
-6.96775 2.45609 0
-5.41082 1.0257 0
7.84863 3.34474 0
7.5435 4.31124 0
6.86075 4.67825 0
6.20328 6.68087 0
3.82969 7.75735 0
3.75497 8.47472 0
2.26964 9.85056 0
2.86361 10.6488 0
-2.1912 10.847 0
-2.15856 10.2643 0
-3.33569 9.14763 0
-3.03851 7.21648 0
-4.83822 7.67516 0
-6.17306 6.52177 0
-8.13492 5.2581 0
-8.00269 4.66687 0
8.52403 4.7615 0
8.52688 4.7711 0
7.18783 6.71123 0
7.5858 8.00319 0
6.42611 9.09219 0
6.64339 9.86181 0
5.99578 10.6885 0
5.95332 11.0593 0
-2.95052 13.1013 0
-3.14353 12.9366 0
-6.71767 11.044 0
-6.0331 10.003 0
-6.74213 8.92599 0
-6.60697 8.60388 0
-9.11048 5.89751 0
-8.94538 5.45024 0
10.0369 5.0943 0
10.3747 6.12796 0
9.65821 7.14793 0
10.7672 7.55773 0
10.5267 9.14494 0
10.7631 9.98314 0
9.74191 15.0282 0
9.80281 17.8628 0
-9.19933 17.7298 0
-9.23934 17.2654 0
-10.6139 10.8814 0
-10.2677 10.1723 0
-10.6158 9.59697 0
-9.84389 8.36851 0
-10.574 7.12816 0
-10.1208 6.04806 0
3.60567 -3.74711 0
4.84079 -3.20888 0
5.71471 -2.79965 0
8.13407 -1.19973 0
9.45907 0.251165 0
10.8285 2.59066 0
10.9492 2.80381 0
11.6972 3.94084 0
12.4919 5.90736 0
12.7115 6.74461 0
12.8683 10.387 0
11.7221 18.9154 0
-11.5698 19.0073 0
-12.8426 11.0111 0
-12.8356 9.55481 0
-12.5299 6.85272 0
-11.7103 4.84862 0
-10.8664 3.68533 0
-10.2323 2.88039 0
-9.2527 1.4281 0
-7.29018 -0.754495 0
-5.18203 -2.18911 0
-3.05843 -3.20845 0
-0.0430376 -4.06248 0
12.5676 12.4882 0
9.25513 11.9709 0
-12.706 14.3987 0
-10.3791 14.4411 0
-0.440035 4.21385 0
0.998779 4.31811 0
-2.00243 6.15009 0
-1.36372 4.48765 0
4.72956 5.7652 0
5.12184 6.7138 0
0.297407 11.0305 0
0.13055 10.1469 0
-1.3243 8.25143 0
-2.69042 7.97006 0
6.2027 6.68329 0
5.43245 8.54723 0
4.46538 8.9937 0
4.40172 10.1584 0
2.50405 11.3762 0
2.50231 11.3743 0
-2.97442 11.2889 0
-4.51757 10.0433 0
-4.08639 9.2354 0
-4.93981 8.25793 0
1.26401 1.71892 0
-0.2309 0.710392 0
6.53635 2.86556 0
5.4279 1.25465 0
5.19238 3.73895 0
3.15578 4.47567 0
-9.46504 12.3322 0
-6.48831 11.584 0
3.15335 4.47508 0
1.63676 5.13387 0
-9.77141 8.22344 0
-8.33744 7.50666 0
-0.986104 -1.16144 0
-1.43359 -3.79889 0
2.43092 25.1304 0
2.78571 26.6297 0
1.06088 -1.72596 0
1.18895 -0.318863 0
2.64803 8.84795 0
1.43602 7.71076 0
9.08977 11.3433 0
6.07399 10.8431 0
6.15896 22.0712 0
0.547849 12.5925 0
-2.92893 -0.255892 0
-3.65277 -2.952 0
-4.66873 2.73878 0
-5.52899 1.64543 0
-5.85655 -1.78713 0
-4.78533 0.597336 0
0.407009 8.21091 0
-0.662352 7.71001 0
9.60748 6.90214 0
7.9843 6.08931 0
5.57125 0.0656478 0
7.2217 -1.90954 0
1.5379 -4.15577 0
1.59937 -2.16469 0
-6.5055 1.78267 0
-8.0687 -0.0311965 0
-5.8295 5.40662 0
-7.10776 4.29391 0
7.65929 2.80579 0
10.0516 1.1484 0
-12.7406 8.25738 0
-9.8456 8.36667 0
12.9943 8.8275 0
10.9866 8.6588 0
-3.06204 3.95628 0
-3.94013 2.70714 0
-9.75903 2.2199 0
-7.10474 3.76941 0
-3.94835 7.05708 0
-4.71281 5.27728 0
-7.29064 7.60744 0
-6.85678 6.66064 0
8.59351 8.22504 0
8.84199 8.86428 0
-0.896867 12.3548 0
-0.813799 11.7452 0
12.572 12.6531 0
10.22 13.4857 0
9.59484 16.2374 0
2.37604 11.6095 0
8.24629 9.92538 0
9.58893 10.9311 0
-7.9319 9.14817 0
-8.26217 10.0884 0
-2.30681 14.531 0
1.12587 13.8692 0
-10.0715 15.1285 0
-4.55586 13.0467 0
9.58833 10.9335 0
12.6709 11.6671 0
-10.2755 16.8647 0
-12.102 17.8337 0
-12.7705 12.3085 0
-9.729 11.9817 0
9.97644 21.5954 0
8.48727 19.6876 0
8.87402 12.3755 0
6.83061 12.25 0
-9.72294 11.9656 0
-7.8942 10.8881 0
2.67419 14.6731 0
4.58532 13.4378 0
-5.03234 11.8055 0
-4.18616 10.8326 0
5.29646 13.3455 0
4.56448 11.6662 0
12.6194 14.6221 0
10.3784 14.3195 0
-3.00451 14.2043 0
-5.05529 14.1239 0
-2.13709 24.231 0
0.239106 15.1262 0
-7.14882 12.4199 0
-5.05647 13.5242 0
-12.7292 13.2187 0
-9.93438 13.1998 0
5.88653 17.7357 0
7.95546 16.4137 0
-0.889295 13.8144 0
-0.576711 12.6645 0
-7.93581 21.5391 0
-9.65337 22.6437 0
1.46005 24.7709 0
2.45372 15.6982 0
-3.10341 16.5368 0
-7.30058 21.9225 0
-10.5723 15.7668 0
-12.6213 15.8157 0
-6.77179 16.2163 0
-6.56313 14.7868 0
-6.97035 12.9188 0
-7.72488 14.244 0
12.3089 17.0356 0
10.0619 16.8924 0
-6.06417 23.5699 0
-6.65203 25.3351 0
6.45652 13.2161 0
5.29828 13.3437 0
9.04527 18.2381 0
7.72808 17.3822 0
4.24577 14.4306 0
6.38168 17.4688 0
-2.0479 15.5674 0
-0.247153 15.8688 0
7.5623 24.2281 0
6.11561 22.9325 0
0.506177 15.103 0
1.56795 16.1179 0
4.31087 23.4115 0
4.06262 16.808 0
12.4819 15.8352 0
9.9805 15.5835 0
-8.3448 16.3579 0
-8.76004 15.326 0
-9.76101 13.5289 0
-7.83128 13.8303 0
-7.93608 20.869 0
-6.06104 17.75 0
0.744843 25.2681 0
0.86467 26.9375 0
2.08301 13.8614 0
2.95447 12.5875 0
-4.01904 16.0187 0
-4.20136 15.2019 0
-10.4797 21.2825 0
-8.73858 20.3724 0
0.285815 17.454 0
-0.101073 17.1466 0
7.92329 14.6497 0
7.31615 15.3855 0
9.07395 13.0935 0
7.81586 14.1607 0
-7.29939 22.8656 0
-8.55733 23.9985 0
-2.48852 16.3725 0
-1.39604 17.6042 0
1.72869 17.3692 0
3.25646 17.6631 0
6.46506 15.2997 0
6.08055 15.786 0
-6.3212 19.7494 0
-5.588 20.1312 0
-8.70185 18.0253 0
-6.52147 17.2157 0
4.00001 16.4999 0
4.88115 15.5761 0
-4.88974 22.7612 0
-3.46096 18.1763 0
5.81745 25.4676 0
5.07953 23.6559 0
-2.66401 26.6861 0
-2.23032 24.262 0
7.53864 19.6269 0
6.99648 17.7964 0
8.57224 23.1622 0
6.88095 21.7436 0
3.67547 19.5733 0
5.05731 20.5297 0
1.4131 19.6055 0
3.20284 19.773 0
0.635382 22.7025 0
-1.33443 22.8355 0
-1.42769 21.8316 0
-3.27226 20.066 0
-6.36496 16.5717 0
-4.33997 15.17 0
-4.99875 22.7321 0
-5.78776 21.3601 0
4.11125 21.9628 0
5.05737 21.3861 0
-11.1241 19.9705 0
-8.79672 18.9427 0
-8.57746 19.1192 0
-6.63047 18.8288 0
-0.382218 19.4231 0
0.166082 18.9857 0
3.41798 24.0002 0
1.45801 20.9082 0
4.48092 26.0725 0
3.7173 24.0435 0
-3.88722 26.4304 0
-3.60405 24.3192 0
-5.32355 17.674 0
-4.70144 18.4757 0
7.10586 20.3467 0
6.19212 19.7654 0
1.72726 17.3712 0
2.11211 19.1346 0
9.10602 19.0212 0
11.1242 20.0634 0
9.34733 22.2787 0
7.26494 20.2986 0
-2.81498 23.8416 0
-2.21346 21.2052 0
-1.72611 18.5321 0
-2.91525 18.7452 0
2.6161 21.6256 0
3.10173 21.3814 0
-5.00505 19.8633 0
-4.23729 20.4321 0
3.89517 18.7647 0
5.69431 18.5362 0
-0.141788 21.0629 0
0.590509 21.4376 0
1.40437 23.146 0
2.47327 22.696 0
-0.894314 25.2654 0
-1.01603 26.922 0
-0.0850202 24.833 0
-0.179899 23.2492 0
-5.79273 25.7457 0
-4.59452 23.9274 0
-1.25036 19.2757 0
-2.16659 21.1964 0
-4.16937 22.0985 0
-2.99672 22.455 0
CELLS 193 1282
5 0 160 161 4 5
6 2 6 7 8 9 3
6 9 144 145 4 161 3
8 145 12 13 14 15 156 5 4
8 7 16 178 17 147 18 19 8
7 19 20 21 10 144 9 8
6 22 23 24 124 125 153
8 25 26 13 12 11 124 24 127
7 27 28 29 168 14 13 26
6 30 31 32 146 147 17
7 18 33 148 149 152 20 19
5 20 152 153 125 21
7 22 37 163 174 175 40 23
5 24 23 40 126 127
5 26 25 192 193 27
7 28 27 193 170 171 47 173
9 32 186 48 49 50 34 148 33 146
5 52 36 35 128 129
6 36 52 53 162 163 37
6 38 54 55 139 130 131
7 40 175 132 133 59 41 126
6 42 41 59 196 197 43
7 44 43 197 184 185 195 45
8 49 64 65 177 66 134 51 50
7 51 134 135 136 53 52 129
6 53 136 137 55 54 162
8 55 137 70 165 71 233 138 139
7 57 56 140 231 141 142 58
7 59 133 58 142 143 60 196
6 61 60 143 77 198 199
5 65 80 81 176 177
6 67 200 201 208 69 68
7 69 208 209 216 164 165 70
5 71 225 264 265 233
8 73 72 236 291 333 237 241 215
5 211 91 92 93 210
8 77 76 210 93 189 154 155 198
5 97 6 2 1 96
5 98 16 7 6 97
5 99 30 17 178 179
4 101 48 186 187
5 102 64 49 48 101
5 103 80 65 64 102
6 176 81 104 105 83 82
4 105 190 191 83
5 217 120 121 164 216
5 122 123 214 254 255
5 110 92 91 90 109
5 93 92 110 188 189
5 113 79 78 95 112
5 114 63 62 79 113
5 114 194 195 185 63
4 173 47 116 172
5 118 15 14 168 169
5 119 0 5 156 157
5 180 181 160 0 119
4 30 99 100 31
4 80 103 104 81
5 249 292 293 284 248
4 94 111 112 95
5 47 171 182 183 116
6 120 204 205 298 224 121
5 122 242 243 282 123
5 124 11 10 21 125
6 126 41 42 192 25 127
5 128 34 50 51 129
6 130 203 56 57 39 131
5 132 39 57 58 133
5 134 66 67 68 135
6 136 135 68 69 70 137
8 138 207 167 247 202 203 130 139
5 140 73 215 230 231
6 142 141 75 76 77 143
5 144 10 11 12 145
4 146 33 18 147
5 148 34 128 35 149
7 150 221 226 227 74 151 240
7 152 149 35 36 37 22 153
5 154 94 95 78 155
4 156 15 118 157
4 357 222 223 356
6 160 181 1 2 3 161
5 162 54 38 174 163
6 164 121 224 225 71 165
6 166 273 317 276 336 337
4 168 29 117 169
6 170 44 45 46 182 171
5 172 117 29 28 173
6 174 38 131 39 132 175
6 176 82 200 67 66 177
4 178 16 98 179
4 180 96 1 181
4 182 46 115 183
6 184 61 199 62 63 185
5 186 32 31 100 187
5 188 111 94 154 189
5 190 106 85 84 191
6 192 42 43 44 170 193
5 194 115 46 45 195
5 196 60 61 184 197
6 198 155 78 79 62 199
6 200 82 83 191 84 201
6 202 72 73 140 56 203
4 204 234 235 205
6 206 261 87 266 267 245
5 208 201 84 85 209
6 210 76 75 74 227 211
6 213 274 239 246 247 167
6 214 123 282 283 259 281
5 216 209 85 106 217
5 218 89 88 108 219
5 220 109 90 226 221
5 222 358 359 320 223
5 224 298 299 264 225
5 226 90 91 211 227
5 228 288 289 229 268
6 230 151 74 75 141 231
7 232 229 289 207 138 233 265
5 234 278 279 86 235
7 236 212 270 302 252 290 291
6 253 248 284 308 309 335
6 240 151 230 215 241 258
5 242 220 221 150 243
6 244 277 312 313 307 269
6 246 212 236 72 202 247
5 248 253 300 301 249
8 275 304 354 294 295 271 239 274
6 252 302 303 362 363 315
4 254 218 219 255
5 256 280 281 259 257
6 258 241 237 257 259 283
4 260 107 87 261
5 318 319 238 374 375
7 264 299 296 297 306 232 265
6 223 320 321 267 266 356
6 268 229 232 306 307 313
5 270 212 246 239 271
4 272 316 317 273
6 274 213 288 228 251 275
7 276 347 344 373 364 365 336
5 278 260 261 206 279
6 280 89 218 254 214 281
6 282 243 150 240 258 283
5 284 293 340 341 308
5 286 250 158 159 287
5 288 213 167 207 289
7 311 332 333 291 290 350 285
5 292 338 339 340 293
6 328 377 329 330 370 371
6 296 86 279 206 245 297
6 298 205 235 86 296 299
4 300 262 263 301
5 302 270 271 295 303
6 304 275 251 312 277 305
7 306 297 245 267 321 269 307
7 308 341 285 350 351 366 309
7 310 88 89 280 256 332 311
5 312 251 228 268 313
7 314 334 335 309 366 367 382
5 316 346 347 276 317
5 318 348 349 360 319
8 320 359 352 353 369 244 269 321
5 322 272 273 166 323
5 324 368 369 353 325
5 326 343 294 354 355
6 328 372 250 286 376 377
8 330 329 238 319 360 383 361 381
5 332 256 257 237 333
5 334 262 300 253 335
6 336 365 327 324 325 337
5 338 108 88 310 339
6 340 339 310 311 285 341
7 343 342 380 362 303 295 294
5 344 158 250 372 373
5 346 159 158 344 347
4 348 378 379 349
5 350 290 252 315 351
6 352 323 166 337 325 353
7 354 304 305 368 324 327 355
5 356 266 87 107 357
5 358 322 323 352 359
6 360 349 379 314 382 383
6 362 380 381 361 331 363
6 364 345 326 355 327 365
6 366 351 315 363 331 367
5 368 305 277 244 369
6 370 342 343 326 345 371
6 372 328 371 345 364 373
5 375 374 376 286 287
5 376 374 238 329 377
6 378 263 262 334 314 379
5 380 342 370 330 381
5 382 367 331 361 383
CELL_TYPES 193
7
7
7
7
7
7
7
7
7
7
7
7
7
7
7
7
7
7
7
7
7
7
7
7
7
7
7
7
7
7
7
7
7
7
7
7
7
7
7
7
7
7
7
7
7
7
7
7
7
7
7
7
7
7
7
7
7
7
7
7
7
7
7
7
7
7
7
7
7
7
7
7
7
7
7
7
7
7
7
7
7
7
7
7
7
7
7
7
7
7
7
7
7
7
7
7
7
7
7
7
7
7
7
7
7
7
7
7
7
7
7
7
7
7
7
7
7
7
7
7
7
7
7
7
7
7
7
7
7
7
7
7
7
7
7
7
7
7
7
7
7
7
7
7
7
7
7
7
7
7
7
7
7
7
7
7
7
7
7
7
7
7
7
7
7
7
7
7
7
7
7
7
7
7
7
7
7
7
7
7
7
7
7
7
7
7
7
7
7
7
7
7
7
CELL_DATA 193
SCALARS cell_division_count float
LOOKUP_TABLE default
1
0
1
0
0
0
1
0
0
1
1
1
1
1
1
1
0
1
1
1
1
1
1
0
1
1
1
1
1
1
1
1
2
4
3
1
1
0
0
1
1
0
0
0
1
2
3
0
1
0
0
1
1
1
1
1
0
0
3
0
1
2
3
1
1
1
1
1
1
1
2
2
1
1
1
1
2
1
1
1
3
1
1
2
7
1
1
1
1
1
1
1
1
1
1
1
1
1
1
1
1
1
2
3
5
2
1
3
5
2
2
2
5
3
2
4
2
3
5
5
6
3
3
6
3
4
6
9
3
5
4
4
6
5
6
6
5
4
5
9
5
5
5
7
4
4
6
4
9
5
3
4
6
6
6
7
6
6
9
5
6
7
4
7
8
8
9
6
8
7
4
7
8
9
5
7
7
7
8
3
5
10
10
9
9
7
9
9
6
8
7
10
10
SCALARS cell_time float
LOOKUP_TABLE default
1001
2.22229e+13
1021
4.48239e+13
2.67348e+11
1.25633e+10
1031
2.68224e+09
9.19769e+11
1021
1021
1011
981
1031
951
991
1.22701e+06
1031
1001
1031
1031
931
971
24813.4
1031
1031
1031
1031
1031
921
981
921
881
621
771
871
1011
1.00108e+18
2.94533e+15
981
971
106113
2375.76
1087.34
961
861
661
1078.01
971
3729.01
1346.18
951
991
1001
1011
981
1.12104e+13
22196.3
451
3067.96
981
901
721
1031
1031
1031
1031
1031
1031
1031
911
791
1031
1021
1021
1021
851
1011
1011
1011
151
1001
1001
861
221
1001
991
991
981
981
981
981
981
971
971
971
961
951
951
931
921
921
911
781
601
881
871
721
501
861
861
861
151
441
851
471
791
781
511
471
361
741
721
351
721
441
451
141
661
511
641
641
61
451
341
371
571
351
541
111
511
511
501
201
491
471
241
221
81
451
441
441
441
431
371
171
361
351
101
181
181
161
331
91
161
51
151
241
231
221
221
201
201
71
181
31
171
161
161
151
151
11
21
111
101
91
81
71
61
51
31
21
11
SCALARS cell_area float
LOOKUP_TABLE default
3.24444
3.30211
3.29427
3.35909
3.35305
3.34449
3.32593
3.37869
3.35086
3.28212
3.33749
3.28704
3.37984
3.31816
3.30799
3.33235
3.4022
3.2866
3.3395
3.38297
3.38578
3.34064
3.34186
3.37318
3.35742
3.36934
3.42305
3.39362
3.38673
3.32955
3.25201
3.30158
3.34226
3.31527
3.4209
3.25451
3.35092
3.25652
3.26534
3.25281
3.24332
3.28474
3.26653
3.28633
3.22669
3.29821
3.27053
3.27085
3.26669
3.25562
3.27493
3.27995
3.22156
3.2618
3.24883
3.24572
3.21355
3.2223
3.27496
3.20292
3.25156
3.31119
3.28359
3.28212
3.33848
3.29105
3.38069
3.34345
3.28519
3.35563
3.4254
3.33691
3.3523
3.28808
3.2465
3.27767
3.33589
3.34865
3.23764
3.22655
3.23047
3.26113
3.32719
3.3201
3.28561
3.22741
3.29978
3.25722
3.36335
3.29069
3.22887
3.20707
3.22135
3.30678
3.25731
3.25373
3.2655
3.32625
3.26937
3.30129
3.29386
3.27032
3.37649
3.24566
3.29283
3.25211
3.32602
3.35427
3.28714
3.28409
3.27479
3.27881
3.28218
3.28202
3.25409
3.28889
3.34648
3.38147
3.27234
3.38688
3.2762
3.34089
3.28791
3.31418
3.37168
3.26302
3.39033
3.31879
3.22664
3.26449
3.31787
3.22163
3.28374
3.35268
3.30824
3.325
3.31813
3.23235
3.33115
3.31613
3.2668
3.27901
3.31106
3.25594
3.28032
3.32224
3.35497
3.28076
3.28686
3.30862
3.29683
3.21722
3.30761
3.31914
3.35909
3.3417
3.32914
3.27546
3.31757
3.27931
3.28553
3.36914
3.27721
3.27204
3.29635
3.26932
3.34698
3.29981
3.23719
3.29708
3.28692
3.30676
3.34519
3.24778
3.28023
3.24367
3.30276
3.29783
3.3342
3.25641
3.28726
3.29854
3.29808
3.30331
3.31023
3.27737
3.29453
3.28785
3.28232
3.25539
3.2948
3.26978
3.27594
SCALARS cell_perimeter float
LOOKUP_TABLE default
6.92505
6.91578
7.00575
7.12842
7.07756
6.84964
7.04908
7.43909
6.90066
6.96333
7.36471
6.98349
6.83999
7.14782
6.99512
6.76812
7.14072
6.95789
6.99161
7.25982
6.91155
7.12567
7.15125
7.39595
7.42837
6.89536
8.12462
6.92785
6.825
7.00593
6.9625
6.92927
8.20994
7.02693
7.03378
7.192
7.65152
7.47447
7.7632
7.5769
8.19355
8.52802
8.05369
7.62487
7.34701
8.64324
7.36076
7.37043
7.87147
7.53533
7.92916
8.23711
7.72759
8.01774
7.64007
7.19297
7.39589
7.35875
7.21276
7.30294
7.66283
8.52506
7.77624
7.03189
7.01214
7.15511
6.99909
6.98906
7.07835
6.89459
8.08464
6.98662
7.0708
7.11947
7.25523
7.17983
7.73534
7.1506
6.93901
7.83438
7.51526
6.78445
7.02133
8.03571
6.80025
7.92332
6.81286
7.91519
6.96291
6.97504
7.73938
7.30417
7.59606
7.03221
7.86344
7.81175
7.26311
6.87636
8.08005
7.07565
7.08557
6.88247
7.25412
7.57475
6.8688
6.98221
6.80935
7.09906
7.05896
8.11904
7.626
8.01144
7.89845
7.13367
7.20251
7.02616
6.96689
7.87296
7.55323
6.83997
7.06277
7.09663
8.19021
7.12701
7.28532
7.16273
7.11269
6.94206
7.3383
6.91613
7.21739
7.41425
7.50363
7.41003
6.96603
7.19083
7.10033
7.3022
6.83956
7.0307
7.542
6.77241
7.41302
7.11203
7.06637
7.11403
7.65899
7.51568
6.80274
7.03472
7.02053
7.30275
7.04959
7.02883
6.92788
6.8358
7.42711
6.96717
7.18433
7.26483
7.4848
7.29215
7.27299
7.0265
7.02047
6.8898
7.33201
7.36217
6.91702
6.93454
7.79929
7.42322
6.85349
6.93181
7.2961
7.39771
7.12844
6.81252
7.2514
7.38567
7.83734
6.79333
7.19008
6.92755
6.84069
7.13172
6.8936
6.77167
7.07018
6.95748
7.66169
7.13843
6.95583
SCALARS cell_frequency_modifier float
LOOKUP_TABLE default
9.5367e+16
3.32687e+13
1.08835e+13
1.41809e+13
1.97796e+12
1.04707e+11
1.00988e+08
6.22756e+09
2.39986e+12
2.24716e+12
4.70635e+09
3.48228e+09
1.04534e+06
3.25886e+07
2.5839e+10
3.78896e+11
1.77866e+09
1.68792e+07
476110
3732.84
892748
1.54597e+07
3.93119e+08
2.4764e+07
420797
17890.1
1631.99
5011.05
184033
724163
4.9289e+09
88382.9
3623.85
521.706
40.1052
5.61337e+06
139375
3.02228e+18
3.91171e+17
1.65027e+16
9.14847e+12
1.17031e+10
1.31259e+11
1.11686e+07
7.69342e+07
1653.1
4069.42
1.67279e+06
1.64096e+07
1.77902e+10
1.01704e+11
2.53874e+10
1.10433e+16
3.74732e+17
7.15532e+18
10000
2.97364e+15
1.49469e+10
451.98
2.08335e+09
7.95672e+14
337.028
329.224
3.09504e+10
1.384e+08
7.0029e+07
2999.46
43960.3
1.65641e+06
17078.8
486.086
608.531
33213.3
4.98477e+11
8.88161e+12
2.74162e+09
844.352
2.5156e+07
4.84093e+08
4.11382e+18
164.058
1.59498e+17
72905.5
1126.54
1.55208
2.65532e+17
4.71326e+10
2.52431e+16
45322.2
3.31412e+06
1.92453e+17
10000
1.34516e+14
6.38936e+07
7.41283e+13
1.06974e+08
6.3374e+06
1.75091e+09
5.73571e+12
1.0813e+07
1.40588e+07
4.34944e+07
415.217
16063.8
7.41039
3.49792e+06
11442.8
51.3926
100.08
13696.2
515.012
12251.8
3.07201
1043.24
728330
166.544
2452.46
229.539
4196.22
8.63879
15.9636
277.612
712.275
6.32939
75.6774
100.815
3.84198
2.82026
1165.62
3150.25
75.243
536.126
2.80635
36.398
1.92489
31.5816
24.6229
107.683
22.8525
0.560387
1421.69
79.589
220.848
183.228
5.08694
219.119
4.26593
5.10602
1.42416
16.6313
93.7939
105.955
7.83113
5.45776
4.1483
1.08119
3.7845
1116.2
0.644958
4.91823
2.11286
0.876148
9.42479
211.304
2.88063
106.633
0.379256
23.6065
101.345
1.11825
3.88223
2.43478
1.388
106.035
4.66916
131.842
4.48861
1.03925
1.44988
280.41
1.35185
0.773905
1.44336
1.00145
1.35236
35.279
1.43248
1.22115
3.51606
107.854
0.957029
141.526
21.914
SCALARS cell_area_modifier float
LOOKUP_TABLE default
100
0.700544
0.939173
0.341291
0.357077
0.389506
0.48799
0.318745
0.370797
2.39752
0.428413
1.28239
0.316134
0.528044
0.631751
0.448316
0.294432
1.42435
0.41911
0.308553
0.306106
0.414608
0.401665
0.324097
0.344335
0.329633
0.290008
0.296695
0.303698
0.458977
100
0.713494
0.397528
0.566814
0.292203
100
0.367269
100
100
100
100
1.74661
100
1.47893
100
0.786151
100
100
100
100
100
3.82178
100
100
100
100
100
100
386
100
100
0.583964
2.02094
2.55629
0.42371
1.01312
0.313566
0.393476
1.671
0.347435
0.287845
0.433221
0.363808
1.09972
100
6.32787
0.438138
0.374394
100
100
100
100
0.470158
0.507227
1.53785
100
0.755382
100
0.335361
1.04043
100
100
100
0.65313
100
100
100
0.475956
100
0.72693
0.962594
100
0.321399
100
0.987212
100
0.481898
0.353804
1.24116
1.82938
100
5.43662
2.25731
2.73759
100
1.06925
0.3818
0.311039
100
0.301327
12.4516
0.410202
1.13196
0.575261
0.326842
100
0.298993
0.520918
100
100
0.542897
100
1.9204
0.360411
0.621578
0.494238
0.535368
100
0.453584
0.558611
100
4.76543
0.592934
100
3.19008
0.500649
0.35059
2.94656
1.37367
0.611727
0.855876
100
0.642263
0.513981
0.3383
0.405889
0.464501
35.0909
0.550642
4.24176
1.60166
0.332472
9.41463
100
0.875283
100
0.378061
0.740883
100
0.83731
1.32646
0.664372
0.385614
100
3.47748
100
0.688057
0.819533
0.443169
100
1.20249
0.770459
0.802495
0.676007
0.602184
7.56863
0.916865
1.16616
2.1326
100
0.895592
100
18.381
SCALARS cell_Gaussian_modifier float
LOOKUP_TABLE default
9.5367e+14
4.74898e+13
1.15884e+13
4.15508e+13
5.53931e+12
2.6882e+11
2.06946e+08
1.95378e+10
6.47215e+12
9.37285e+11
1.09855e+10
2.71546e+09
3.30662e+06
6.17157e+07
4.09005e+10
8.45155e+11
6.041e+09
1.18504e+07
1.136e+06
12097.9
2.91646e+06
3.72876e+07
9.78724e+08
7.64092e+07
1.22205e+06
54272.8
5627.41
16889.6
605974
1.57777e+06
4.9289e+07
123873
9115.95
920.419
137.251
56133.7
379490
3.02228e+16
3.91171e+15
1.65027e+14
9.14847e+10
6.7005e+09
1.31259e+09
7.55181e+06
769342
2102.78
40.6942
16727.9
164096
1.77902e+08
1.01704e+09
6.64281e+09
1.10433e+14
3.74732e+15
7.15532e+16
100
2.97364e+13
1.49469e+08
1.17093
2.08335e+07
7.95672e+12
577.139
162.906
1.21075e+10
3.26639e+08
6.91219e+07
9565.65
111723
991269
49156.9
1688.71
1404.67
91293.6
4.53279e+11
8.88161e+10
4.33261e+08
1927.13
6.71914e+07
4.84093e+06
4.11382e+16
1.64058
1.59498e+15
155066
2220.97
1.00925
2.65532e+15
6.23958e+10
2.52431e+14
135145
3.18534e+06
1.92453e+15
100
1.34516e+12
9.78267e+07
7.41283e+11
1.06974e+06
63374
3.67872e+09
5.73571e+10
1.48749e+07
1.46051e+07
434944
1291.9
160.638
7.50638
34979.2
23745.3
145.257
80.634
7486.76
5.15012
2253.56
1.36092
381.081
7283.3
155.757
6423.43
737.974
41.9622
28.6692
1.28205
676.769
629.237
11.0026
231.541
1.00815
12.8497
5.41403
11.6562
31.5025
138.595
5.36126
1.46134
100.99
3.09678
63.8996
45.9926
1.07683
50.382
1.00318
14.2169
16.7013
372.466
1.83228
1.59461
437.67
12.1678
1.73287
1.03676
27.1875
109.588
1.05955
12.193
10.6186
12.2622
2.66375
8.14746
31.8089
1.17128
1.15948
1.31917
2.63525
1.00108
2.11304
3.29108
1.06633
1.00316
31.8626
1.01345
1.33552
2.92676
3.66478
3.59944
1.06035
1.34268
1.31842
6.5236
1.2681
3.27161
2.8041
1.1242
1.00447
1.79859
1.48142
2.24575
4.66122
1.56236
1.04715
1.64872
1.07854
1.0686
1.41526
1.19221
