# vtk DataFile Version 2.0
2D-vertex
ASCII
DATASET UNSTRUCTURED_GRID
POINTS 716 float
0.256258 -3.35079 0
2.70517 -3.20839 0
3.11956 -2.26876 0
2.12088 -1.17238 0
-0.140026 -0.968052 0
-0.895094 -2.44113 0
3.64636 -2.24909 0
4.24258 -1.41141 0
3.35073 0.131326 0
2.29635 -0.154691 0
1.15443 1.13499 0
-0.52334 1.65388 0
-1.31798 0.397842 0
-1.47458 0.36298 0
-2.0308 -1.29565 0
-1.541 -2.19412 0
4.81074 -1.58504 0
5.64427 -0.729237 0
3.85125 0.860991 0
3.57817 0.801446 0
2.72651 1.78569 0
1.6569 1.72695 0
1.10065 5.35304 0
0.225776 5.34867 0
-0.630538 3.50138 0
-1.86692 2.62473 0
-1.82429 0.720189 0
-3.12181 0.456802 0
-3.6566 -0.567224 0
-3.36987 -1.28525 0
6.71245 -0.747877 0
7.35212 -0.0448407 0
7.21364 1.27335 0
5.0268 2.50934 0
5.51047 3.07476 0
3.19963 4.47022 0
2.47618 5.76528 0
1.57811 5.94746 0
0.702685 9.09557 0
-0.90921 9.17306 0
-0.632996 6.18098 0
-2.17082 5.27738 0
-3.24275 3.76215 0
-4.20449 3.81305 0
-4.96461 2.41786 0
-6.38022 2.13253 0
-6.68553 1.06956 0
-5.19733 -0.306613 0
7.65077 1.88286 0
7.33654 2.93628 0
6.59502 3.38008 0
5.92204 5.4563 0
3.5997 6.71226 0
3.55101 7.56133 0
2.129 9.18672 0
2.68064 9.88118 0
-1.88323 10.5314 0
-1.8088 9.67325 0
-3.05127 8.3842 0
-2.75319 6.25457 0
-4.39827 6.5956 0
-5.79232 5.30253 0
-7.73378 3.84026 0
-7.59726 3.30684 0
8.26689 3.3198 0
8.2669 3.3223 0
6.8428 5.40765 0
7.30968 6.59351 0
6.08795 7.89825 0
6.31747 8.56712 0
5.58431 9.58945 0
5.35726 10.0538 0
-2.62474 12.812 0
-2.85804 12.5313 0
-6.11449 9.75371 0
-5.44208 8.94526 0
-6.16885 7.60209 0
-6.08385 7.42992 0
-8.71607 4.3554 0
-8.56993 4.00414 0
9.81187 3.58271 0
10.1558 4.52407 0
9.38002 5.53044 0
10.5652 5.92139 0
10.31 7.45011 0
10.5224 8.15717 0
9.88525 12.841 0
10.9417 14.9453 0
-9.76843 14.8759 0
-9.75809 14.8397 0
-10.1018 8.95232 0
-9.80745 8.42662 0
-10.1495 7.79825 0
-9.41191 6.69766 0
-10.2298 5.4493 0
-9.77651 4.46951 0
3.59156 -5.08371 0
4.80207 -4.55565 0
5.64103 -4.16545 0
8.01434 -2.61195 0
9.32918 -1.19918 0
10.6998 1.11076 0
10.7923 1.2724 0
11.5106 2.32582 0
12.336 4.23609 0
12.5617 5.01233 0
12.824 8.52474 0
13.524 15.3027 0
-13.2873 15.344 0
-12.7032 8.91347 0
-12.619 7.63877 0
-12.2512 5.10217 0
-11.3847 3.16161 0
-10.5311 2.06229 0
-9.93369 1.34252 0
-9.04311 0.0237863 0
-7.13378 -2.12207 0
-5.07786 -3.53618 0
-2.99353 -4.54827 0
-0.00501664 -5.39827 0
12.7204 10.0581 0
8.69152 10.3057 0
-12.9811 11.3989 0
-10.1146 12.2109 0
-0.386249 3.16188 0
0.916326 3.2405 0
-1.89811 5.23922 0
-1.17633 3.5017 0
4.46862 4.64632 0
4.89009 5.55937 0
0.41092 10.6639 0
0.178677 9.60468 0
-1.14016 7.52335 0
-2.34559 7.2435 0
5.92113 5.45862 0
5.13561 7.43811 0
4.16532 7.96038 0
4.19491 9.28215 0
2.20482 10.8622 0
2.20274 10.8608 0
-2.43266 10.7957 0
-3.99235 9.11337 0
-3.55078 8.40791 0
-4.51663 7.17894 0
1.26348 0.489939 0
-0.199725 -0.483848 0
6.39253 1.53601 0
5.27416 0.0184726 0
5.02481 2.51085 0
3.01493 3.358 0
-8.98019 10.567 0
-5.92622 10.4287 0
3.01243 3.35809 0
1.58662 4.06094 0
-9.42265 6.64095 0
-8.01178 6.02432 0
-0.925194 -2.45601 0
-1.37422 -5.14072 0
12.6084 34.0907 0
13.9836 34.9671 0
1.07054 -3.01966 0
1.2006 -1.56374 0
2.53291 7.9669 0
1.33994 6.9536 0
8.50056 9.82309 0
5.58472 9.59194 0
9.55492 20.6068 0
0.11326 12.5288 0
-2.81807 -1.5469 0
-3.55781 -4.30255 0
-4.40521 1.49218 0
-5.31331 0.317504 0
-5.71488 -3.15268 0
-4.61613 -0.705698 0
0.401878 7.44874 0
-0.531666 7.02499 0
9.34672 5.39164 0
7.73472 4.63403 0
5.45013 -1.2584 0
7.14056 -3.28553 0
1.54447 -5.48871 0
1.60864 -3.45948 0
-6.2612 0.448138 0
-7.87828 -1.42426 0
-5.40409 4.2028 0
-6.73968 2.97309 0
7.47944 1.39888 0
9.91607 -0.329728 0
-12.4957 6.48722 0
-9.43383 6.66197 0
12.8964 7.04554 0
10.7926 6.92171 0
-2.82974 2.81963 0
-3.75705 1.47388 0
-9.52077 0.776972 0
-6.7323 2.40278 0
-3.58977 6.0722 0
-4.36727 4.11056 0
-6.83936 6.20272 0
-6.42475 5.39951 0
8.29905 6.7392 0
8.52057 7.2221 0
-0.821502 12.3922 0
-0.640169 11.3728 0
12.725 10.067 0
10.1315 11.4202 0
10.0743 13.7458 0
1.94741 11.3559 0
7.95352 8.48502 0
9.21411 9.18321 0
-7.32312 7.71142 0
-7.66106 8.47219 0
-2.28554 14.6522 0
0.841221 13.7899 0
-10.0435 12.7183 0
-4.12375 12.4059 0
9.21289 9.18541 0
12.727 9.56936 0
-10.828 13.905 0
-13.347 14.3378 0
-12.7551 9.89738 0
-9.23527 10.144 0
13.0872 18.0693 0
10.4313 16.5179 0
8.37744 10.7514 0
6.25423 10.9677 0
-9.2353 10.1415 0
-7.34324 9.42659 0
2.38319 14.293 0
4.13421 12.6774 0
-4.44595 10.8741 0
-3.659 10.1746 0
4.88412 12.4195 0
3.94418 10.9199 0
13.1187 11.754 0
10.3567 11.9675 0
-2.90982 14.2523 0
-4.60477 13.3639 0
-12.3951 28.1374 0
0.0730876 15.3271 0
-6.53362 11.0038 0
-4.48893 12.6612 0
-12.8332 10.6109 0
-9.44853 11.1883 0
6.21284 16.3853 0
8.28331 14.5976 0
-1.07104 14.1193 0
-0.634877 12.5974 0
-10.5661 18.1903 0
-13.5766 17.477 0
9.31489 38.27 0
2.33215 15.3191 0
-3.08323 16.7664 0
-10.4729 18.5837 0
-10.786 13.2064 0
-13.2088 12.4438 0
-6.66108 14.7572 0
-6.12034 13.619 0
-6.4086 11.6989 0
-7.25898 12.6628 0
13.4063 13.4736 0
10.8702 14.2826 0
-11.2504 19.8714 0
-14.0078 20.2145 0
6.05536 12.0449 0
4.88536 12.4174 0
10.325 15.6249 0
8.35691 15.2202 0
3.97816 13.7561 0
6.75772 15.8489 0
-2.08505 15.9615 0
-0.467733 16.274 0
14.3897 21.4922 0
11.8086 22.1629 0
0.310392 15.2786 0
1.32124 16.0076 0
12.3535 24.0728 0
4.05961 15.8765 0
13.2445 12.6018 0
10.1957 13.2131 0
-8.50672 14.2991 0
-8.55317 13.433 0
-9.34886 11.5092 0
-7.26762 12.3015 0
-10.1409 17.7344 0
-6.30706 16.4385 0
6.01851 40.591 0
6.32163 42.427 0
1.75507 13.66 0
2.5113 12.1407 0
-3.96107 15.8653 0
-3.91223 14.7966 0
-13.4113 16.5941 0
-10.3673 17.1073 0
-0.0811393 17.6915 0
-0.259493 17.5816 0
7.7655 12.9615 0
7.367 13.8438 0
8.63523 11.2747 0
7.61415 12.6623 0
-11.2612 19.2063 0
-13.7905 18.4452 0
-2.63244 16.7435 0
-1.66805 18.0855 0
1.61726 17.0382 0
3.41596 17.0095 0
6.33412 14.0142 0
6.09872 14.5346 0
-7.59581 17.8596 0
-7.38722 18.2167 0
-9.24923 15.5521 0
-6.5209 15.7092 0
4.03402 15.8196 0
4.73926 14.6327 0
-10.6321 21.7589 0
-3.8808 18.1008 0
14.7973 22.7745 0
12.6528 23.2842 0
-15.1257 28.0086 0
-13.0519 27.5538 0
8.71279 17.0545 0
7.74299 15.9696 0
13.1306 18.8032 0
9.73743 19.7994 0
4.2685 18.2483 0
6.16037 18.9789 0
1.42055 19.4506 0
3.63657 18.6934 0
-0.641294 25.0961 0
-3.3534 23.9856 0
-3.12935 22.3182 0
-4.55006 19.9452 0
-6.29583 15.3849 0
-4.10186 14.6964 0
-9.87428 20.5323 0
-8.37286 19.3099 0
8.01524 23.6048 0
7.53172 20.77 0
-13.2978 15.7504 0
-9.62427 16.1347 0
-9.60178 16.1883 0
-7.38449 17.1091 0
-0.0466328 19.6462 0
0.175498 19.3658 0
12.6894 32.7482 0
2.38983 22.6248 0
15.758 29.9076 0
13.9107 29.5476 0
-14.7518 22.6707 0
-12.1754 22.8688 0
-5.4588 16.755 0
-5.24499 17.8317 0
8.28196 17.7779 0
7.07228 17.7111 0
1.46497 17.2842 0
2.06014 18.3459 0
10.5934 16.1235 0
13.4503 16.2885 0
13.0314 18.3258 0
8.72384 17.3554 0
-11.6373 23.7342 0
-4.52285 20.1428 0
-2.07926 19.0067 0
-3.54057 18.9329 0
3.97231 23.1001 0
4.60918 22.4761 0
-5.89578 18.4676 0
-5.71558 19.4668 0
4.27486 17.839 0
6.2443 16.8811 0
-1.78406 22.0655 0
-0.0926638 23.2993 0
2.0879 28.3922 0
10.9365 32.0267 0
-6.14199 39.7767 0
-7.21952 41.1119 0
-1.00221 40.6506 0
-2.30862 24.7001 0
-14.2441 20.8848 0
-11.9549 22.2237 0
-1.72147 19.5697 0
-3.55369 20.6883 0
-7.49062 21.2764 0
-5.94202 21.3925 0
12.8572 27.8735 0
10.7965 30.5618 0
5.29009 20.9343 0
6.98428 21.3869 0
11.7705 22.255 0
8.89418 22.6172 0
13.6182 19.8608 0
11.4875 21.6002 0
-12.7775 26.4463 0
-3.69577 21.8489 0
15.7298 27.7407 0
13.78 28.3071 0
2.57009 20.5436 0
3.7852 19.7662 0
-15.1415 24.5789 0
-12.9746 25.2466 0
-1.38126 26.7266 0
4.27485 24.241 0
0.435541 20.8896 0
2.14198 21.3556 0
-8.36171 19.3815 0
-7.03584 20.1834 0
8.80643 18.864 0
7.23105 19.6229 0
-1.37094 21.2802 0
-2.05955 20.2787 0
13.0294 18.3358 0
8.8465 18.7506 0
-2.39067 24.4218 0
-1.22694 23.1077 0
-5.81037 21.8909 0
-4.78344 22.36 0
-4.38138 24.3618 0
-4.97905 23.7585 0
-14.012 20.2236 0
-10.6115 21.4308 0
5.6997 24.4286 0
6.38442 23.3974 0
0.142081 29.5648 0
2.25569 40.9054 0
-8.21275 22.3389 0
-7.76913 23.3617 0
1.35179 41.079 0
0.953801 43.0634 0
-9.05365 29.0541 0
-7.26023 30.7166 0
10.0806 21.1991 0
8.79898 22.2219 0
15.1348 24.0501 0
12.7986 24.597 0
6.1624 22.8299 0
7.10282 21.7703 0
2.59278 21.0103 0
4.42908 21.7233 0
3.63412 24.7995 0
5.15211 28.4359 0
5.14992 20.2862 0
6.23936 19.2895 0
1.96259 23.0159 0
2.19865 24.2249 0
13.3084 19.2763 0
10.0689 20.9617 0
-3.95508 36.0052 0
-3.16126 31.7988 0
-12.4985 30.1392 0
-14.5611 30.6906 0
0.0483827 21.3628 0
0.508908 22.6327 0
-7.15635 23.4359 0
-6.77586 24.093 0
-9.81981 20.9361 0
-7.49053 21.2739 0
8.97956 26.1761 0
10.126 24.5351 0
-15.2909 26.5442 0
-13.0528 26.1943 0
-7.13138 24.9953 0
-6.94928 26.6365 0
3.15649 32.9663 0
7.78471 32.0276 0
-11.6187 32.3325 0
-8.45273 30.4857 0
8.72042 26.6809 0
5.79729 27.4169 0
2.58952 27.952 0
1.66718 26.0347 0
-4.44165 26.1242 0
-4.35383 26.1586 0
7.42966 40.1069 0
8.3915 41.5146 0
0.192139 24.2809 0
1.55505 24.7437 0
-9.2108 24.4553 0
-9.28326 24.9982 0
4.11163 36.4167 0
2.79909 39.4637 0
-2.91729 25.6076 0
-2.25997 26.6639 0
13.5267 29.8959 0
11.6499 29.498 0
-3.24479 41.2521 0
-3.37465 42.9024 0
-5.06132 40.0108 0
-4.52969 36.0198 0
10.4325 24.0969 0
10.1216 23.0097 0
-9.87519 27.2948 0
-8.71185 25.4617 0
12.7279 27.1129 0
10.5709 26.1122 0
-1.58082 36.5181 0
-0.112889 31.6966 0
-9.82047 22.4783 0
-10.1787 23.6121 0
15.3823 31.6604 0
13.7577 31.1163 0
15.412 25.1954 0
13.1544 25.8872 0
10.5301 36.459 0
8.87546 35.4109 0
-0.967198 29.5323 0
-0.872854 27.7487 0
-8.82514 36.4515 0
-10.7958 37.5683 0
3.66636 25.7527 0
2.44092 26.4485 0
7.30354 30.6926 0
7.21188 27.4362 0
6.20969 25.113 0
5.12544 25.9404 0
-5.17724 29.3891 0
-4.32189 29.9309 0
8.41051 24.4496 0
8.16327 24.8691 0
5.55973 30.1795 0
5.24291 32.7185 0
-12.2354 30.4152 0
-9.79868 29.019 0
10.2934 38.0157 0
11.3837 39.0254 0
-8.09569 28.1535 0
-5.2208 28.7699 0
-7.73963 37.3478 0
-7.2414 35.1235 0
2.87302 32.8535 0
1.70324 33.632 0
-14.8727 29.3579 0
-12.5322 28.7706 0
-14.0217 32.3612 0
-12.5226 31.7481 0
-0.762555 38.0531 0
0.854438 37.5002 0
[...]
CELL_DATA 359
SCALARS cell_division_count float
LOOKUP_TABLE default
1
0
1
0
0
0
1
0
0
1
1
1
1
1
1
1
0
1
1
1
1
1
1
0
1
1
1
1
1
1
1
1
2
4
3
1
1
0
0
1
1
0
0
0
1
2
3
0
1
0
0
1
1
1
1
1
0
0
3
0
1
2
3
1
1
1
1
1
1
1
2
2
1
1
1
1
2
1
1
1
3
1
1
2
9
1
1
1
1
1
1
1
1
1
1
1
1
1
1
1
1
1
2
3
5
2
1
3
5
2
2
2
5
3
2
4
2
3
5
5
6
3
3
6
3
4
6
9
3
5
4
4
8
5
6
6
5
4
5
14
5
5
5
7
5
4
6
4
10
5
3
4
6
6
6
7
6
6
11
7
8
7
6
7
8
14
11
6
8
9
4
7
8
13
6
7
7
8
8
3
6
12
10
11
9
7
11
13
9
13
8
11
10
11
9
9
5
14
6
10
8
13
10
10
8
11
6
10
11
14
8
11
13
11
9
12
9
8
9
11
13
9
11
6
15
12
11
12
11
13
8
13
13
12
15
14
10
7
12
13
12
11
12
10
14
9
14
15
13
12
7
9
13
15
9
14
14
14
13
13
12
12
7
12
14
13
8
9
14
14
14
13
14
14
13
9
14
14
14
12
14
14
14
8
15
9
9
14
13
13
13
12
12
10
12
12
13
15
7
13
13
15
10
14
14
14
8
13
14
12
13
14
15
14
13
14
15
15
12
15
13
9
11
13
14
14
13
14
13
13
9
7
10
13
14
14
15
13
15
13
13
14
15
12
14
14
14
13
10
8
14
14
13
14
14
13
9
14
14
SCALARS cell_time float
LOOKUP_TABLE default
1961
2.22229e+13
1981
4.48239e+13
2.67348e+11
1.25633e+10
1991
2.68224e+09
9.19769e+11
1981
1981
1971
1941
1991
1911
1951
1.22797e+06
1991
1961
1991
1991
1891
1931
25773.4
1991
1991
1991
1991
1991
1881
1941
1881
1841
1581
1731
1831
1971
1.00108e+18
2.94533e+15
1941
1931
107073
3335.76
2047.34
1921
1821
1621
2038.01
1931
4689.01
2306.18
1911
1951
1961
1971
1941
1.12104e+13
23156.3
1411
4027.96
1941
1861
1681
1991
1991
1991
1991
1991
1991
1991
1871
1751
1991
1981
1981
1981
1811
1971
1971
1971
1111
1961
1961
1821
741
1961
1951
1951
1941
1941
1941
1941
1941
1931
1931
1931
1921
1911
1911
1891
1881
1881
1871
1741
1561
1841
1831
1681
1461
1821
1821
1821
1111
1401
1811
1431
1751
1741
1471
1431
1321
1701
1681
1311
1681
1401
1411
1101
1621
1471
1601
1601
381
1411
1301
1331
1531
1311
1501
331
1471
1471
1461
1161
591
1431
1201
1181
831
1411
1401
1401
1401
1391
1331
1131
1321
1311
671
741
661
1121
711
1051
1121
11
801
1201
1191
741
1181
1161
1161
11
521
991
1131
851
1121
1111
841
531
981
741
1061
1051
681
471
161
141
801
851
971
561
741
541
941
331
921
921
321
341
891
861
851
851
841
831
811
351
801
791
71
781
1
231
741
521
741
741
461
741
731
711
71
41
681
681
671
451
661
211
201
171
171
371
601
121
581
571
131
571
191
121
51
541
331
181
21
531
221
311
151
211
211
211
211
211
281
451
271
271
211
231
181
61
381
381
41
371
11
151
351
151
341
341
341
331
331
151
331
91
331
321
191
131
311
191
191
281
111
271
261
251
231
231
141
81
221
221
211
211
21
211
211
211
21
201
41
191
111
21
191
191
191
11
181
51
171
171
161
161
161
151
31
151
71
1
141
11
131
121
121
111
1
91
81
71
71
71
61
51
51
41
41
41
31
21
21
21
21
11
11
11
11
11
1
1
1
SCALARS cell_area float
LOOKUP_TABLE default
3.24182
3.29996
3.29345
3.35598
3.35126
3.34378
3.32726
3.37487
3.34874
3.28168
3.33692
3.28281
3.38672
3.31977
3.30616
3.32993
3.39858
3.28945
3.34686
3.3971
3.39246
3.34019
3.33951
3.37246
3.35946
3.37695
3.43949
3.4037
3.39206
3.32998
3.24682
3.29766
3.34975
3.3343
3.4471
3.25031
3.34571
3.25228
3.26074
3.24823
3.23638
3.27757
3.26166
3.27824
3.21992
3.285
3.25771
3.26324
3.25903
3.24794
3.26763
3.27315
3.21619
3.25681
3.24443
3.24188
3.20928
3.21692
3.27216
3.19604
3.24589
3.3068
3.27014
3.28071
3.33781
3.28546
3.39893
3.3526
3.28079
3.35827
3.45155
3.35299
3.35777
3.28696
3.24849
3.27524
3.34229
3.35178
3.23148
3.22176
3.2232
3.25845
3.33574
3.33007
3.36612
3.22231
3.29668
3.25195
3.37104
3.28787
3.22414
3.20347
3.21573
3.30418
3.25104
3.24447
3.25864
3.32438
3.26282
3.30086
3.29005
3.26365
3.4012
3.23382
3.29646
3.24099
3.32931
3.38706
3.29227
3.27885
3.26058
3.27229
3.27773
3.29293
3.24657
3.31575
3.35742
3.40396
3.25718
3.42755
3.30139
3.35131
3.27262
3.34567
3.40588
3.26722
3.44163
3.39526
3.21788
3.28071
3.33525
3.20978
3.28914
3.37096
3.31855
3.35223
3.36493
3.26946
3.3661
3.30328
3.25203
3.28382
3.31655
3.27459
3.2644
3.34888
3.39824
3.27329
3.3544
3.3157
3.30138
3.23908
3.37024
3.35861
3.38526
3.38713
3.34021
3.30723
3.35356
3.281
3.26449
3.41135
3.29333
3.31827
3.36529
3.3092
3.35571
3.32822
3.29773
3.35616
3.27511
3.32629
3.42741
3.26576
3.27702
3.23695
3.36048
3.3702
3.38498
3.24276
3.29997
3.31002
3.42718
3.37742
3.3882
3.31501
3.3722
3.37621
3.23719
3.29756
3.28341
3.40153
3.39688
3.28529
3.35344
3.26869
3.24286
3.29299
3.24272
3.33758
3.26935
3.30689
3.41041
3.35112
3.30298
3.38051
3.29319
3.33221
3.37584
3.35227
3.31279
3.37869
3.34392
3.34403
3.31095
3.303
3.34274
3.28493
3.36442
3.36208
3.42269
3.34779
3.38278
3.28627
3.32782
3.30934
3.38572
3.31693
3.29884
3.35463
3.22604
3.34368
3.38911
3.25252
3.32268
3.37956
3.40599
3.29752
3.37089
3.37511
3.31574
3.34387
3.26138
3.34891
3.29351
3.32891
3.37266
3.28612
3.27573
3.31134
3.29212
3.25662
3.27395
3.31566
3.30079
3.35955
3.27555
3.32871
3.36244
3.32557
3.29146
3.29331
3.2972
3.33568
3.37222
3.36571
3.28109
3.28512
3.32596
3.32715
3.25509
3.27559
3.36249
3.32612
3.35304
3.2936
3.32427
3.33388
3.35429
3.28996
3.26245
3.33595
3.32649
3.27229
3.34129
3.25868
3.30884
3.28681
3.28294
3.31462
3.29635
3.3013
3.32367
3.2884
3.35686
3.33687
3.32965
3.34226
3.30189
3.3289
3.3123
3.32423
3.30184
3.31477
3.31202
3.29964
3.27886
3.35227
3.36774
3.29277
3.30398
3.30152
3.27412
3.3483
3.3306
3.27507
3.37734
3.33905
3.30767
3.31804
3.30324
3.28758
3.29529
3.31922
3.26649
3.30069
3.27019
3.33368
3.36155
3.25777
3.32619
3.29748
3.31884
3.27883
3.34861
3.28344
3.28246
3.24014
3.30912
3.31521
3.28817
3.30558
3.27515
3.3037
3.31898
3.28679
3.32242
3.27361
3.27235
3.33418
3.31254
3.28278
3.28128
3.28828
3.27058
3.28895
3
3.26576
0
SCALARS cell_perimeter float
LOOKUP_TABLE default
6.93042
6.94557
6.96277
7.20313
7.13281
6.82112
7.07411
7.64615
6.93879
6.92579
7.38995
7.0035
6.8032
7.23646
7.04481
6.7969
7.18344
6.96998
6.93129
7.02368
6.93381
7.26217
7.24262
7.57737
7.58455
6.95085
8.05892
7.08076
6.88871
7.06869
6.95204
7.04842
8.22327
7.02978
7.0422
7.34142
7.90571
7.52893
7.83816
7.64843
8.28616
8.68822
8.20854
7.77827
7.38756
9.53534
7.98961
7.67179
8.0664
7.67165
8.15046
8.47111
7.79545
8.08456
7.68022
7.22047
7.44352
7.39546
8.36919
7.32874
7.74045
9.60374
8.58925
7.03682
7.14053
7.23753
6.91436
7.06428
7.17231
6.86989
7.87082
7.05178
7.16118
7.07833
7.24043
7.21948
7.8131
7.26227
6.93658
7.88167
8.18129
6.79163
7.01421
7.91887
7.51309
7.99181
6.82569
7.9941
7.0526
7.00068
7.80679
7.31618
7.66403
7.12828
7.94529
7.98745
7.37312
6.94523
8.24859
7.18183
7.16967
6.94621
7.14962
8.0197
7.16373
7.03018
6.84808
7.27701
7.2982
8.58008
8.57202
8.58936
9.8553
7.21227
7.24923
7.07106
6.92285
7.53709
8.2141
6.94035
7.68343
7.24674
8.95185
7.25344
7.24781
8.13557
7.07303
7.02953
7.69477
7.02206
7.29412
7.76829
7.46209
7.41264
7.22619
7.13328
7.05219
7.67205
6.89207
7.1093
8.16461
6.89243
7.58178
7.59149
7.31962
7.21977
7.38593
8.88603
7.09752
7.29199
7.26902
7.8678
7.07447
7.23367
6.86313
6.88769
8.00887
7.02567
7.60134
7.45422
7.37623
7.00558
9.146
7.36144
7.03419
7.25007
6.97565
7.24696
7.39141
7.15395
9.19537
7.91377
7.1094
7.14432
7.14848
7.77447
7.04285
7.13348
7.29603
7.94111
10.3651
6.8402
7.20627
7.14888
6.90418
7.39657
6.88988
6.90905
7.34323
6.96468
8.69205
7.04425
7.58945
7.02143
6.95004
7.06454
7.86989
7.09797
7.32684
7.00243
7.94525
6.96599
7.32956
7.12393
7.11181
6.92564
9.65803
7.04516
7.01863
6.95405
9.2648
6.94939
7.88003
7.13427
7.1717
6.98778
7.35885
7.53704
7.10655
7.17099
7.05381
7.14156
7.03986
8.76436
6.87984
7.48319
7.10691
7.17712
7.39271
7.12368
7.45465
7.18331
6.90819
7.00389
7.11409
6.86242
7.06253
7.09512
6.9212
7.08719
6.94243
6.92107
7.19583
7.41046
6.79861
6.92661
6.81961
7.04064
6.93749
7.0109
7.12322
7.60778
6.93671
6.9474
7.10044
7.21244
7.08341
7.42427
6.83686
7.14649
7.31555
7.30269
7.27997
7.2333
6.77138
7.10235
7.43541
7.255
7.05046
6.93589
6.94234
6.87989
6.86876
7.17321
6.95441
7.11466
7.01003
7.06837
7.16127
6.92682
7.26131
7.04407
6.89811
8.05277
6.90898
7.34772
7.58775
7.14658
7.05643
7.03648
6.87569
7.46666
7.15661
7.12014
7.19167
6.82787
7.1202
6.76422
7.18229
7.13485
7.1507
6.8261
7.32351
7.15614
7.0559
7.12963
7.44852
7.078
7.00403
7.37128
6.81104
6.90554
6.92815
7.14901
7.46876
7.05004
6.9535
7.41887
6.88399
7.09497
7.25948
7.08076
7.1456
6.85553
6.92164
7.052
6.95527
6.91115
7.07595
6.92941
7.06909
7.06197
7.25318
6.9978
7.32972
6.93733
7.27694
7.21549
6.88872
6.96775
7.0403
6.91674
7.21561
7.36203
6.93107
7.08776
7.00264
6.92906
7.45378
7.33496
6.81038
7.32247
7.22762
6.96297
7.20354
6.85661
17
3.27262
0
SCALARS cell_frequency_modifier float
LOOKUP_TABLE default
8.2045e+17
1.7357e+15
9.64147e+14
4.23045e+14
1.2496e+14
1.61526e+13
1.05271e+11
1.68846e+12
1.41851e+14
9.71187e+15
1.93531e+12
1.24075e+14
1.96468e+09
4.49005e+10
9.72056e+12
4.91681e+13
9.40328e+11
7.90872e+10
1.39798e+09
1.48123e+07
1.73012e+09
2.6125e+10
3.85779e+11
4.74491e+10
1.60203e+09
8.20414e+07
1.00953e+07
2.12109e+07
5.80533e+08
3.42295e+09
1.25698e+13
1.67987e+09
5.13508e+07
4.62906e+06
194156
7.34835e+10
1.30413e+09
7.80029e+18
2.17024e+18
3.04357e+17
2.48435e+15
4.05609e+14
1.38812e+14
3.66171e+12
6.99399e+11
9.11595e+08
2.21427e+08
3.59497e+10
2.13061e+11
3.61825e+13
1.097e+14
3.70044e+14
2.29855e+17
2.10707e+18
1.34029e+19
10000
1.07775e+17
3.31097e+13
1.15053e+06
8.508e+12
4.17444e+16
1.92661e+07
7.35719e+08
3.56258e+14
1.25918e+11
1.01435e+12
1.01376e+07
1.42409e+08
4.32229e+11
1.21788e+08
1.66724e+06
3.21905e+06
1.94809e+08
2.75132e+14
1.72788e+15
3.61008e+13
1.56377e+07
3.3335e+10
2.39113e+12
9.64408e+18
2.17017e+06
1.14397e+18
2.61307e+08
1.74301e+07
164.105
1.71736e+18
2.8077e+13
3.80568e+17
1.33227e+08
7.37687e+10
1.44183e+18
10000
1.34556e+16
1.67749e+11
9.67757e+15
8.78418e+11
9.70138e+10
1.17875e+12
1.58898e+15
4.04309e+10
1.43138e+11
3.90121e+11
1.46514e+06
8.12053e+08
316278
5.02116e+10
1.43557e+08
124959
5.7215e+06
1.65953e+10
1.78984e+07
6.76813e+09
1.10447e+06
1.59445e+07
1.3438e+10
625348
1.89575e+07
1.30207e+06
2.01831e+08
20177.1
6694.45
2.76578e+06
2.23316e+09
34889.2
195483
481158
7536.19
2239.14
6.49543e+07
4.75963e+07
840917
2.12009e+07
15.7838
436081
31399
225851
35386.9
19949.5
61315.4
51.2486
6.56721e+07
1.57575e+07
5.84652e+06
1.41459e+06
135.894
709480
19599.6
3.18365e+06
25.7352
495831
3.77743e+06
194060
6565.49
14801.2
47267.4
3344.9
59794.1
165070
142.309
8024.18
1327.91
5716.22
3039.9
5496.3
1709.67
1.06269
49.8346
152980
3006.83
63.0652
7.24719e+06
24447
1057.67
155.363
320.56
23493.3
6182.75
1296.63
2708.15
6.3802e+06
9055.02
144.689
423.109
85.4882
1071.19
17515.9
75.4874
10.5833
151.641
1.93649
156531
247.303
249.572
61.4044
375.014
10474
44815.1
65.687
563.764
1087.83
5339.29
14.4948
279.549
1076.98
1573.34
134.088
7383.1
66.9081
141.317
8.83141
696.489
33.4462
0.989318
102.928
1.46889
5.52253
116.808
825.252
109.761
263.287
9.9305
1089.14
27.9553
5934.65
0.746321
0.99295
86.9061
95.5956
1325.64
23.1972
2620.81
22.6797
1.47197
253.063
6.62193
3.72095
10.7777
2.02877
29.7277
18.4645
0.882651
11.9264
312.605
0.641457
2.25025
49.9071
6.91036
77.8991
105.234
102.801
5.89024
1918.04
100.284
2.24736
1.58071
4.67282
404.159
14.8189
2.11455
21.3894
7.55481
10.1178
1.81636
5.81606
0.366049
0.4752
695.609
35.854
0.674342
4.09245
104.092
119.306
3.04841
1.3616
12.7351
3.20846
8.78258
10.6504
22.0352
4.1386
1260.09
0.822033
5.8917
10100.2
1.17237
164.872
10.3389
11.9569
228.351
12.0264
3.15294
10.399
3.15104
7.09084
1.70085
4.89736
0.962904
0.851707
1.80158
1.76863
18.0387
3.00906
1.29337
10.0015
6.54108
24.9031
103.456
2.08527
0.440522
6.04858
1.14576
1.4533
265.326
1.03859
1.33846
104.16
1.60529
0.672248
3.4616
3.5359
1.32281
6.87543
2.67125
0.76418
102.812
4.24228
109.406
0.568854
0.42567
100.058
0.922281
1.86308
1.1344
124.687
0.463265
138.324
136.755
261.649
1.6242
0.835741
4.83893
1.09363
143.362
1.28267
0.812569
11.9351
0.720395
125.42
100.008
0.652954
1.33393
104.603
138.902
5.32284
120.688
3.97692
1
1
1
SCALARS cell_area_modifier float
LOOKUP_TABLE default
100
1.50847
2.21118
0.404086
0.441687
0.487004
0.634581
0.345296
0.455826
100
0.530551
100
0.323342
0.725051
1.07553
0.592346
0.307958
3.52475
0.467806
0.310646
0.314766
0.511494
0.515195
0.348678
0.388646
0.338725
0.290375
0.302721
0.316163
0.587459
100
1.64815
0.447236
0.555382
0.288026
100
0.470899
100
100
100
100
100
100
100
100
16.9524
100
100
100
100
100
100
100
100
100
100
100
100
100
100
100
1.05952
100
100
0.522761
9.88889
0.306632
0.425837
100
0.392936
0.286865
0.423306
0.395117
5.83607
100
100
0.497207
0.436275
100
100
100
100
0.542683
0.582651
0.364754
100
1.86387
100
0.353877
5.01408
100
100
100
1.10903
100
100
100
0.683301
100
1.39062
3.20721
100
0.305317
100
1.91398
100
0.602369
0.321881
2.8254
100
100
100
100
2.61765
100
0.798206
0.397321
0.301439
100
0.291564
1.31365
0.438964
100
0.474035
0.300169
100
0.289196
0.31338
100
100
0.551084
100
3.70833
0.355644
0.755839
0.433618
0.372385
100
0.366632
1.1634
100
32.3636
0.789357
100
100
0.452926
0.309296
100
0.411085
0.816514
1.33835
100
0.359233
0.390779
0.326306
0.320432
0.507846
1.0289
0.415888
100
100
0.29642
2.28205
0.763948
0.370447
0.972678
0.406393
0.623468
1.61086
0.401806
100
0.652015
0.292763
100
100
100
0.384449
0.361055
0.327808
100
1.47718
0.946809
0.293972
0.335533
0.318996
0.845606
0.352127
0.340344
100
1.6872
356
0.304014
0.312007
11.4839
0.418331
100
100
2.52482
100
0.526627
100
1.04399
0.297659
0.444444
1.22337
0.330855
2.43836
0.573269
0.341979
0.4284
0.876847
0.333959
0.480432
0.477212
0.934383
1.2027
0.493759
22.25
0.374343
0.380342
0.295191
0.464752
0.329325
7.73913
0.628975
0.959569
0.324818
0.780702
1.57522
0.408726
100
0.490358
0.317574
100
0.710579
0.3324
0.298908
1.72816
0.35743
0.343629
0.807256
0.483696
100
0.450063
2.14458
0.607509
0.346979
8.68293
100
0.92228
2.94215
100
100
0.825986
1.41833
0.386536
100
0.618056
0.378321
0.676806
3.06897
2.35762
1.81633
0.546851
0.350394
0.36853
100
13.6923
0.670433
0.640288
100
100
0.376321
0.664179
0.420804
2.08187
0.689922
0.564184
0.413473
3.35849
100
0.538578
0.646098
100
0.504249
100
1
6.35714
100
0.86618
1.96685
1.36398
0.703557
4.13953
0.399551
0.534535
0.597315
0.500703
1.24476
0.612737
0.89899
0.696673
1.2669
0.855769
0.910486
1.54113
100
0.430993
0.362895
2.71756
1.12658
1.28986
100
0.461738
0.577922
100
0.337121
0.51895
1.01425
0.772234
1.18272
5.39394
2.02273
0.73251
100
1.44715
100
0.56869
0.382385
100
0.658041
1.77114
0.747899
100
0.458763
59.3333
100
100
0.98615
0.835681
4.68421
1.09202
100
1.14469
0.740125
6.98039
0.717742
100
100
0.559748
0.887781
100
100
4.39506
100
3.91209
1
1
1
SCALARS cell_Gaussian_modifier float
LOOKUP_TABLE default
8.2045e+15
1.15063e+15
4.36033e+14
1.04692e+15
2.82916e+14
3.31672e+13
1.65891e+11
4.88988e+12
3.11196e+14
9.71187e+13
3.64774e+12
1.24075e+12
6.07617e+09
6.19274e+10
9.03793e+12
8.30057e+13
3.05342e+12
2.24377e+10
2.98837e+09
4.76822e+07
5.49652e+09
5.10757e+10
7.48802e+11
1.36083e+11
4.12207e+09
2.42206e+08
3.47665e+07
7.00676e+07
1.83618e+09
5.82671e+09
1.25698e+11
1.01925e+09
1.14818e+08
8.33491e+06
674092
7.34835e+08
2.76944e+09
7.80029e+16
2.17024e+16
3.04357e+15
2.48435e+13
4.05609e+12
1.38812e+12
3.66171e+10
6.99399e+09
5.37739e+07
2.21427e+06
3.59497e+08
2.13061e+09
3.61825e+11
1.097e+12
3.70044e+12
2.29855e+15
2.10707e+16
1.34029e+17
100
1.07775e+15
3.31097e+11
11505.3
8.508e+10
4.17444e+14
1.81838e+07
7.35719e+06
3.56258e+12
2.40871e+11
1.02575e+11
3.30611e+07
3.34422e+08
4.32229e+09
3.09944e+08
5.81194e+06
7.60455e+06
4.93041e+08
4.71433e+13
1.72788e+13
3.61008e+11
3.14511e+07
7.64083e+10
2.39113e+10
9.64408e+16
21701.7
1.14397e+16
4.8151e+08
2.99151e+07
449.905
1.71736e+16
1.50638e+13
3.80568e+15
3.76478e+08
1.47123e+10
1.44183e+16
100
1.34556e+14
1.51257e+11
9.67757e+13
8.78418e+09
9.70138e+08
1.72508e+12
1.58898e+13
2.90739e+10
4.46301e+10
3.90121e+09
4.79875e+06
8.12053e+06
165246
5.02116e+08
2.3832e+08
388215
2.02502e+06
1.65953e+08
178984
6.76813e+07
11044.7
6.09116e+06
1.3438e+08
783442
4.77133e+07
4.31952e+06
2.01831e+06
69203.1
5096.06
6.30069e+06
2.23316e+07
73600.6
651244
4811.58
26059.1
7145.13
649543
475963
1.52593e+06
212009
4.25631
1.22617e+06
41541.9
520854
95027.7
199.495
167239
44.0507
656721
486888
7.40668e+06
14145.9
1.35894
1.56644e+06
63368.5
31836.5
62.603
607254
2.82246e+06
1940.6
18276.4
37876
144856
10438.7
117741
160433
342.181
80.2418
13.2791
19284.2
1332.09
7194.59
4615.14
1.09254
122.627
245370
1866.6
156.954
72471.9
37494.6
3612.72
1.55363
3.2056
234.933
16082.1
3591.23
8261.38
63802
6129.94
152.818
1439.29
254.784
3357.99
20714
214.376
31.0959
1.51641
1.14775
439.693
813.462
799.893
5.34701
896.453
104.74
448.151
26.0165
5.63764
2065.65
53.3929
13.884
939.159
2423.21
1286.08
405.277
3027.9
116.713
413.233
20.6149
794.311
100.151
2.05923
215.686
1.57205
4.59177
236.568
37.09
293.209
692.237
33.641
2343.49
84.8867
766.836
1.18657
1.03479
267.554
122.448
841.557
56.7549
26.2081
46.2513
4.63504
2.53063
9.31907
11.1942
36.0567
1.17395
83.1708
53.7338
1.0934
24.6569
3.12605
1.42526
1.04927
82.1505
19.9158
8.97152
1.05234
111.464
2.00202
19.1804
1.00284
2.72082
1.11449
12.089
4.04159
23.9766
5.5893
31.6034
2.46168
4.29153
1.00002
10.6356
1.04468
1.28945
6.95609
2.61855
1.00583
6.39159
1.04092
1.19306
8.10056
2.05004
30.2638
1.54114
12.7298
18.8776
53.2931
1.23228
12.6009
1.5263
9.11889
101.002
2.32499
1.64872
10.3389
1.88086
2.28351
13.8845
1.60304
7.624
4.47873
1.71296
4.2569
9.16192
1.61205
1.70102
1.44734
2.88644
20.0655
4.31919
1.02089
11.6871
7.18416
16.159
1.03456
4.8383
1.21391
2.22574
1.01702
1.12672
2.65326
2.2493
2.31598
1.0416
4.76177
1.2954
3.41298
4.57879
1.11844
1.27466
1.32062
1.04323
1.02812
2.93146
1.09406
1.00029
1.1132
1.00058
1.40156
1.05191
1.51678
1.24687
1.00981
2.3313
1.36755
2.61649
1.64701
1.00007
1.03303
1.00147
1.43362
1.12053
1.09788
1.70981
1.0037
1.2542
1.00008
1.16651
1.50255
1.04603
1.38902
1.2111
1.20688
1.01657
1
1
1
