# vtk DataFile Version 3.0
2D-vertex
ASCII
DATASET UNSTRUCTURED_GRID

POINTS 512 float
-0.0173455 -2.51014 0
2.44729 -2.43565 0
2.88709 -1.51293 0
1.9247 -0.391613 0
-0.348145 -0.121172 0
-1.14342 -1.5652 0
3.42376 -1.50877 0
4.04434 -0.689229 0
3.20749 0.865822 0
2.12809 0.608626 0
1.02013 1.91178 0
-0.659796 2.49045 0
-1.49119 1.26166 0
-1.66666 1.22757 0
-2.25771 -0.391909 0
-1.79219 -1.30067 0
4.61292 -0.881193 0
5.48376 -0.049317 0
3.74879 1.57204 0
3.45284 1.5175 0
2.64364 2.51677 0
1.54712 2.49284 0
1.11067 6.04034 0
0.153685 6.05604 0
-0.711209 4.26743 0
-2.00699 3.46708 0
-2.01369 1.60002 0
-3.33279 1.36606 0
-3.88135 0.375117 0
-3.61099 -0.34783 0
6.55757 -0.101983 0
7.22828 0.590627 0
7.12634 1.91053 0
4.98586 3.18046 0
5.49766 3.73541 0
3.21779 5.15262 0
2.55794 6.40918 0
1.60367 6.62263 0
0.72775 9.6184 0
-0.950321 9.70975 0
-0.685844 6.90352 0
-2.32428 6.06705 0
-3.38829 4.63616 0
-4.39024 4.71185 0
-5.1551 3.38047 0
-6.58775 3.12566 0
-6.90755 2.0869 0
-5.43049 0.673535 0
7.60013 2.52112 0
7.32498 3.56448 0
6.61586 4.01223 0
6.0334 6.0781 0
3.72779 7.3593 0
3.69601 8.13322 0
2.27374 9.69343 0
2.84723 10.3921 0
-1.96544 11.0099 0
-1.92484 10.2903 0
-3.14646 9.10865 0
-2.88083 7.06328 0
-4.58533 7.47614 0
-5.97214 6.25127 0
-7.94462 4.87844 0
-7.81645 4.33095 0
8.29215 3.92968 0
8.29234 3.93218 0
6.98323 6.0139 0
7.47783 7.2067 0
6.34209 8.48423 0
6.59838 9.15796 0
5.97338 10.1315 0
5.81898 10.4754 0
-2.73315 13.2745 0
-2.92848 13.0794 0
-6.36204 10.7015 0
-5.6826 9.80536 0
-6.40515 8.57865 0
-6.30239 8.35531 0
-8.92316 5.4345 0
-8.77611 5.05992 0
9.84437 4.14298 0
10.2287 5.09111 0
9.51547 6.13231 0
10.7042 6.47696 0
10.5377 8.0247 0
10.7998 8.77103 0
10.3045 13.6055 0
11.1802 15.989 0
-9.86541 16.3847 0
-9.82685 16.1717 0
-10.347 10.1361 0
-10.0326 9.55018 0
-10.3726 8.94979 0
-9.62985 7.80142 0
-10.4182 6.57299 0
-9.97338 5.56788 0
3.27545 -4.33145 0
4.50401 -3.83976 0
5.35884 -3.47423 0
7.79019 -1.99297 0
9.15565 -0.619736 0
10.6092 1.63926 0
10.7096 1.79976 0
11.4787 2.83967 0
12.3808 4.72519 0
12.6403 5.50129 0
13.05 9.03568 0
13.5748 16.4873 0
-13.0134 17.0971 0
-12.8442 10.1495 0
-12.7781 8.82992 0
-12.4305 6.25611 0
-11.5894 4.29737 0
-10.7515 3.17895 0
-10.1573 2.43668 0
-9.27193 1.08395 0
-7.39376 -1.0985 0
-5.36261 -2.55493 0
-3.30149 -3.61369 0
-0.335363 -4.54185 0
12.9747 10.8383 0
9.21494 10.8853 0
-13.0442 12.9156 0
-10.3545 13.4644 0
-0.488636 3.94688 0
0.86499 3.99661 0
-1.97021 6.00661 0
-1.32232 4.28276 0
4.5338 5.29332 0
4.9784 6.20171 0
0.43596 11.0842 0
0.209916 10.1361 0
-1.20696 8.19248 0
-2.48406 7.93757 0
6.03269 6.08049 0
5.33693 8.03148 0
4.38047 8.56423 0
4.41064 9.77423 0
2.45642 11.2562 0
2.45431 11.2548 0
-2.6445 11.3743 0
-4.19244 9.91725 0
-3.75889 9.16374 0
-4.68984 8.0542 0
1.10649 1.28723 0
-0.392872 0.3462 0
6.31396 2.19051 0
5.1467 0.686419 0
4.98387 3.18197 0
2.98985 4.06001 0
-9.2357 11.6688 0
-6.15788 11.315 0
2.98735 4.05998 0
1.54727 4.79542 0
-9.60361 7.73311 0
-8.1866 7.07666 0
-1.17831 -1.5812 0
-1.6982 -4.24683 0
4.04486 31.5555 0
4.51765 33.4474 0
0.811239 -2.20067 0
0.982283 -0.759661 0
2.62919 8.57083 0
1.40091 7.54491 0
9.02373 10.3919 0
5.97461 10.1337 0
9.5015 21.9584 0
0.441662 12.7689 0
-3.05864 -0.625252 0
-3.85977 -3.35467 0
-4.61412 2.43427 0
-5.53414 1.29803 0
-5.99407 -2.15682 0
-4.84996 0.257525 0
0.422122 8.07992 0
-0.578258 7.65214 0
9.4692 5.96611 0
7.81398 5.25798 0
5.2723 -0.57061 0
6.88718 -2.64269 0
1.2145 -4.67649 0
1.33701 -2.65603 0
-6.48812 1.44881 0
-8.12883 -0.384775 0
-5.61537 5.14522 0
-6.95092 3.97332 0
7.4078 2.03387 0
9.77286 0.230016 0
-12.6609 7.63302 0
-9.63498 7.79313 0
13.0607 7.52927 0
10.9797 7.49492 0
-3.00196 3.69521 0
-3.94221 2.39855 0
-9.74104 1.84766 0
-6.95358 3.41721 0
-3.74906 6.90374 0
-4.55261 5.0241 0
-7.04141 7.2205 0
-6.62993 6.37092 0
8.50422 7.33449 0
8.76578 7.86485 0
-0.759977 12.6543 0
-0.653016 11.8458 0
12.9784 10.8476 0
10.5501 12.1406 0
10.4472 14.6358 0
2.29614 11.5796 0
8.25402 9.04914 0
9.6213 9.81854 0
-7.58728 8.73178 0
-7.92243 9.54856 0
-2.21372 14.8733 0
1.12733 13.9587 0
-10.2247 14.0349 0
-4.28676 13.061 0
9.62044 9.8209 0
12.9791 10.1851 0
-10.8737 15.4287 0
-13.1776 16.0299 0
-12.8708 11.2303 0
-9.48261 11.2868 0
12.9136 19.3162 0
10.5546 17.7696 0
8.88415 11.3402 0
6.79388 11.4991 0
-9.48249 11.2843 0
-7.58612 10.4394 0
2.7858 14.494 0
4.59623 13.0126 0
-4.67944 11.6698 0
-3.85395 10.8458 0
5.38793 12.8016 0
4.45156 11.2999 0
13.3564 12.6353 0
10.7941 12.7723 0
-2.8788 14.5153 0
-4.81721 14.0454 0
-6.24945 29.0892 0
0.283455 15.3705 0
-6.80178 11.9893 0
-4.74705 13.4196 0
-12.9234 11.9942 0
-9.72556 12.3839 0
6.81507 16.7668 0
8.7497 15.2977 0
-0.843832 14.1938 0
-0.52109 12.8856 0
-10.2741 19.9657 0
-12.8372 20.0691 0
2.64031 31.7909 0
2.72402 15.4379 0
-3.07403 16.8794 0
-10.0197 20.4092 0
-10.9003 14.5792 0
-13.2064 14.0836 0
-6.85295 15.7205 0
-6.40779 14.4625 0
-6.66256 12.5747 0
-7.54378 13.6694 0
13.5849 14.6163 0
11.1533 15.1931 0
-10.2262 22.0996 0
-12.2868 23.3302 0
6.55805 12.5163 0
5.38966 12.7998 0
10.5453 16.5922 0
8.78302 16.0818 0
4.41599 13.9806 0
7.23504 16.4159 0
-1.97875 15.9739 0
-0.219649 16.2541 0
12.3457 25.3395 0
10.2794 24.7051 0
0.64303 15.3003 0
1.74213 16.0911 0
9.13974 27.0501 0
4.57618 16.142 0
13.4634 13.6234 0
10.6223 14.0329 0
-8.64195 15.4806 0
-8.78896 14.5668 0
-9.61474 12.6827 0
-7.57826 13.3111 0
-9.94972 19.351 0
-6.45788 17.2269 0
0.93071 32.6732 0
0.83932 34.2171 0
2.13424 13.8245 0
2.87257 12.3819 0
-3.98149 16.1567 0
-4.04314 15.2941 0
-12.8954 18.8807 0
-10.3314 18.7658 0
0.286789 17.5582 0
0.00447359 17.4004 0
8.27072 13.6166 0
7.84628 14.4202 0
9.15925 11.9441 0
8.1042 13.2386 0
-10.5618 21.2489 0
-12.738 21.3674 0
-2.47808 16.788 0
-1.45311 18.0179 0
2.00201 17.0384 0
3.97911 17.0935 0
6.85728 14.5133 0
6.6392 14.9304 0
-7.53591 18.9143 0
-7.29811 19.1686 0
-9.41014 16.8579 0
-6.72139 16.6539 0
4.52158 16.0127 0
5.20147 14.9568 0
-9.23176 23.9035 0
-3.69248 18.3263 0
11.8249 26.939 0
10.2642 26.293 0
-8.2254 30.6358 0
-7.04424 29.03 0
9.22051 18.1037 0
8.20865 16.6607 0
12.599 21.2728 0
10.0045 21.1692 0
4.8276 18.389 0
6.68914 19.4053 0
1.82757 19.2555 0
4.16106 18.761 0
-0.0433682 25.2358 0
-2.31391 24.075 0
-2.34394 22.2444 0
-4.15059 20.1776 0
-6.48653 16.2148 0
-4.24085 15.2175 0
-9.06547 22.2347 0
-7.98969 20.5048 0
6.6671 24.64 0
7.70072 21.5086 0
-12.9461 17.7682 0
-9.74276 17.5988 0
-9.71281 17.6471 0
-7.47627 18.1481 0
0.341726 19.3888 0
0.540698 19.1377 0
4.88061 30.8385 0
2.63079 22.6704 0
7.60919 32.1209 0
6.82239 30.5889 0
-11.3505 26.8783 0
-9.65428 25.9189 0
-5.50627 17.4019 0
-5.17644 18.2673 0
8.90021 18.7216 0
7.67979 18.417 0
1.92642 17.1499 0
2.47816 18.2519 0
10.8149 17.213 0
13.4142 17.5564 0
12.7251 19.8748 0
9.20032 18.5007 0
-8.81373 26.3039 0
-4.09872 20.3279 0
-1.75311 18.8721 0
-3.30542 18.9807 0
3.8864 23.1809 0
4.61958 22.6496 0
-5.75844 19.0911 0
-5.40396 19.9466 0
4.86154 18.0692 0
6.81721 17.3 0
-1.13594 21.8782 0
0.487881 23.2626 0
1.7242 28.6227 0
4.4343 28.8612 0
-3.52526 31.0937 0
-4.03104 33.1813 0
-1.49716 31.5271 0
-1.35236 24.8777 0
-12.0139 24.8795 0
-9.94963 24.7564 0
-1.35822 19.3856 0
-3.04459 20.6874 0
-6.65636 22.2025 0
-5.19135 21.8724 0
7.28408 28.1843 0
5.27988 28.1595 0
5.54288 21.1629 0
7.01313 21.951 0
10.0228 24.9179 0
8.04155 23.9247 0
12.5681 23.3897 0
10.3164 23.6753 0
-7.62659 27.9285 0
-2.98704 21.8668 0
9.36811 30.6053 0
7.8459 29.5872 0
2.91533 20.4324 0
4.1932 19.777 0
-10.6251 28.1477 0
-8.83262 27.1171 0
0.0341804 26.2694 0
4.0842 24.5501 0
0.856936 20.7087 0
2.43852 21.1998 0
-7.93322 20.6276 0
-6.54263 21.0077 0
9.33438 19.9691 0
7.70552 20.3173 0
-0.797996 21.1066 0
-1.62327 20.0922 0
12.6663 20.2151 0
9.33592 19.9671 0
-1.51108 24.3564 0
-0.417745 23.0955 0
-4.87468 22.4244 0
-3.91642 22.5869 0
-3.06672 24.5818 0
-3.69728 24.2426 0
-12.2164 23.6096 0
-9.39877 23.4947 0
5.11737 24.9362 0
5.91285 24.3104 0
0.559516 28.7077 0
0.239643 32.0406 0
-6.98524 23.4769 0
-6.13665 24.3176 0
-0.696229 32.3138 0
-1.04002 34.0014 0
-4.44023 28.0758 0
-3.10036 28.7543 0
9.55438 22.9254 0
8.1617 23.3078 0
11.0887 28.4346 0
9.16858 27.4247 0
5.81444 23.2254 0
7.01694 22.4886 0
2.89902 20.8981 0
4.5616 21.7903 0
3.38172 25.137 0
3.21892 27.1498 0
5.51862 20.5068 0
6.71688 19.7374 0
2.19536 23.0277 0
2.44814 24.7661 0
12.5684 22.3219 0
9.76881 22.4014 0
-1.80848 29.2541 0
-1.24722 28.318 0
-5.86389 29.9281 0
-7.01772 31.5377 0
0.506289 21.1375 0
1.04634 22.6773 0
-5.70958 24.2249 0
-4.94679 24.9063 0
-8.83738 22.6588 0
-6.657 22.2001 0
5.45374 26.4613 0
7.09704 26.2358 0
-9.34359 29.6785 0
-8.05511 27.9416 0
-5.00517 25.8293 0
-3.9664 26.5662 0
2.15796 29.3386 0
3.81474 28.6985 0
-4.72182 30.0757 0
-3.92596 28.8398 0
5.05027 26.8557 0
3.7278 26.5176 0
2.46335 27.1404 0
1.8516 26.4281 0
-3.16252 26.2554 0
-2.52111 26.7887 0
2.50434 32.2725 0
3.24587 33.8648 0
0.787151 24.5639 0
1.9674 25.0973 0
-6.99269 25.8951 0
-6.71593 26.6054 0
1.54166 30.634 0
0.605081 30.8039 0
-2.23062 26.6875 0
-1.50772 27.1994 0
6.06416 30.3766 0
5.93005 28.5055 0
-2.1535 31.7075 0
-2.64965 33.6155 0
-3.05259 30.8973 0
-2.62346 29.3519 0
8.14298 26.2191 0
8.78496 24.7623 0
-5.58053 28.0945 0
-6.13186 26.7152 0
7.37351 28.0379 0
6.7442 26.7136 0
-1.07503 30.2401 0
-0.0101429 30.0706 0
-8.25431 24.1773 0
-7.99023 25.6677 0
6.04664 32.8894 0
5.40439 30.9972 0
9.90468 29.9948 0
8.47643 28.1315 0
3.56159 31.3443 0
3.16561 29.4351 0
0.287813 28.33 0
0.765929 26.7934 0
-4.54347 30.6205 0
-5.81934 32.3304 0
3.49081 25.5722 0
1.92473 26.5133 0
3.67945 28.3469 0
5.02503 26.8493 0

CELLS 768 2304
2 160 0
2 1 2
2 2 3
2 161 4
2 4 5
2 5 0
2 2 6
2 6 7
2 7 8
2 8 9
2 3 9
2 9 144
2 10 11
2 11 12
2 145 4
2 12 13
2 13 14
2 15 14
2 5 156
2 7 16
2 17 178
2 147 17
2 19 18
2 19 8
2 20 19
2 21 20
2 10 21
2 153 125
2 23 22
2 24 23
2 24 124
2 127 24
2 26 25
2 26 13
2 27 26
2 28 27
2 29 28
2 14 168
2 30 17
2 30 31
2 32 31
2 32 146
2 18 33
2 33 148
2 128 35
2 20 152
2 35 36
2 37 36
2 22 37
2 37 163
2 38 131
2 175 40
2 40 23
2 126 40
2 42 41
2 25 192
2 43 42
2 43 44
2 193 27
2 45 44
2 46 45
2 47 171
2 173 47
2 48 186
2 48 49
2 49 50
2 34 50
2 50 51
2 52 129
2 36 52
2 52 53
2 53 162
2 54 38
2 55 54
2 139 55
2 57 56
2 39 57
2 58 57
2 59 133
2 41 59
2 59 196
2 61 60
2 197 43
2 199 61
2 62 63
2 195 185
2 49 64
2 64 65
2 177 65
2 51 134
2 67 66
2 68 67
2 53 136
2 69 68
2 70 69
2 55 137
2 165 70
2 233 71
2 73 72
2 140 56
2 215 73
2 74 75
2 58 142
2 76 75
2 77 76
2 60 143
2 77 198
2 78 79
2 79 62
2 65 80
2 80 81
2 81 176
2 67 200
2 82 83
2 83 191
2 69 208
2 84 85
2 164 216
2 71 225
2 86 279
2 158 502
2 88 89
2 290 252
2 254 214
2 90 91
2 91 211
2 91 92
2 92 93
2 93 210
2 189 93
2 94 95
2 95 78
2 96 1
2 96 97
2 97 6
2 97 98
2 16 98
2 179 99
2 99 30
2 31 100
2 187 101
2 101 48
2 101 102
2 102 64
2 102 103
2 103 80
2 81 104
2 104 105
2 83 105
2 105 190
2 85 106
2 217 120
2 87 107
2 108 88
2 255 122
2 109 90
2 109 110
2 92 110
2 110 188
2 111 94
2 95 112
2 112 113
2 113 79
2 113 114
2 63 114
2 114 194
2 115 46
2 116 47
2 116 172
2 117 29
2 169 118
2 118 15
2 157 119
2 0 119
2 119 180
2 99 100
2 103 104
2 249 292
2 111 112
2 183 116
2 120 204
2 121 224
2 120 121
2 122 242
2 123 282
2 122 123
2 124 11
2 125 21
2 124 125
2 41 126
2 127 25
2 126 127
2 34 128
2 129 51
2 128 129
2 203 130
2 131 39
2 130 131
2 39 132
2 133 58
2 132 133
2 134 66
2 135 68
2 134 135
2 136 135
2 137 70
2 136 137
2 207 138
2 130 139
2 139 138
2 140 73
2 75 141
2 231 140
2 142 141
2 143 77
2 142 143
2 144 10
2 145 12
2 144 145
2 146 33
2 147 18
2 146 147
2 148 34
2 149 35
2 148 149
2 221 150
2 151 74
2 150 240
2 152 149
2 153 22
2 152 153
2 94 154
2 155 78
2 154 155
2 156 15
2 157 118
2 156 157
2 266 87
2 357 222
2 159 158
2 181 160
2 161 3
2 160 161
2 162 54
2 163 174
2 162 163
2 164 121
2 71 165
2 165 164
2 445 166
2 247 167
2 337 166
2 168 29
2 169 117
2 168 169
2 44 170
2 171 182
2 170 171
2 172 117
2 173 28
2 172 173
2 174 38
2 175 132
2 174 175
2 176 82
2 177 66
2 176 177
2 178 16
2 179 98
2 178 179
2 180 96
2 181 1
2 180 181
2 182 46
2 183 115
2 182 183
2 61 184
2 185 63
2 184 185
2 186 32
2 187 100
2 186 187
2 188 111
2 189 154
2 188 189
2 190 106
2 191 84
2 190 191
2 192 42
2 193 170
2 192 193
2 194 115
2 195 45
2 194 195
2 196 60
2 197 184
2 196 197
2 198 155
2 199 62
2 198 199
2 200 82
2 201 84
2 200 201
2 72 202
2 203 56
2 202 203
2 204 234
2 205 235
2 205 204
2 261 206
2 167 207
2 206 245
2 208 201
2 209 85
2 208 209
2 210 76
2 227 74
2 210 211
2 236 72
2 213 167
2 239 274
2 214 123
2 230 215
2 241 237
2 216 209
2 217 106
2 216 217
2 89 218
2 219 108
2 218 219
2 220 109
2 221 226
2 220 221
2 222 358
2 320 223
2 223 222
2 224 298
2 264 225
2 225 224
2 226 90
2 227 211
2 226 227
2 228 288
2 289 229
2 228 268
2 151 230
2 231 141
2 230 231
2 229 232
2 233 138
2 265 233
2 234 278
2 235 86
2 235 234
2 236 212
2 257 237
2 291 236
2 248 284
2 246 239
2 271 295
2 240 151
2 241 215
2 240 258
2 242 220
2 243 150
2 242 243
2 277 244
2 232 306
2 245 267
2 212 246
2 247 202
2 246 247
2 253 248
2 301 249
2 249 248
2 448 238
2 251 228
2 294 354
2 252 302
2 300 253
2 335 309
2 218 254
2 255 219
2 254 255
2 280 256
2 259 281
2 256 257
2 258 241
2 259 257
2 283 259
2 260 107
2 261 87
2 260 261
2 238 319
2 449 318
2 263 262
2 299 264
2 232 265
2 265 264
2 223 356
2 244 269
2 267 266
2 268 229
2 321 267
2 313 307
2 212 270
2 271 239
2 270 271
2 272 316
2 273 388
2 272 273
2 274 213
2 275 251
2 274 275
2 276 433
2 277 312
2 488 276
2 278 260
2 279 206
2 278 279
2 89 280
2 281 214
2 280 281
2 282 243
2 283 258
2 282 283
2 284 293
2 311 285
2 308 284
2 472 286
2 473 287
2 287 286
2 288 213
2 289 207
2 288 289
2 285 350
2 333 291
2 291 290
2 292 338
2 293 340
2 293 292
2 403 345
2 330 370
2 295 294
2 86 296
2 297 245
2 296 297
2 298 205
2 299 296
2 298 299
2 262 300
2 301 263
2 300 301
2 302 270
2 303 295
2 302 303
2 304 275
2 305 277
2 304 305
2 306 297
2 307 269
2 306 307
2 308 341
2 315 252
2 309 308
2 88 310
2 311 332
2 310 311
2 312 251
2 313 268
2 312 313
2 314 419
2 309 366
2 315 363
2 316 432
2 317 276
2 317 316
2 318 458
2 319 392
2 319 318
2 359 320
2 269 321
2 321 320
2 322 444
2 166 323
2 323 322
2 324 368
2 369 353
2 324 325
2 343 326
2 327 324
2 326 355
2 478 462
2 416 329
2 377 328
2 330 329
2 314 496
2 361 381
2 332 256
2 333 237
2 332 333
2 262 334
2 335 253
2 334 404
2 421 336
2 441 407
2 435 431
2 338 108
2 339 310
2 338 339
2 340 339
2 341 285
2 340 341
2 303 362
2 343 294
2 342 343
2 344 158
2 328 474
2 373 344
2 346 498
2 482 347
2 347 346
2 348 378
2 349 379
2 348 349
2 350 290
2 351 315
2 350 351
2 411 352
2 325 353
2 353 352
2 354 304
2 355 327
2 354 355
2 356 266
2 357 107
2 356 357
2 358 410
2 352 359
2 359 358
2 360 349
2 331 361
2 497 360
2 362 380
2 331 363
2 363 362
2 345 364
2 437 365
2 365 364
2 366 351
2 367 331
2 366 367
2 368 305
2 369 244
2 368 369
2 408 450
2 371 451
2 371 413
2 422 504
2 466 456
2 439 468
2 426 376
2 485 375
2 374 375
2 484 486
2 412 377
2 376 494
2 378 418
2 379 314
2 379 378
2 380 342
2 393 330
2 409 380
2 455 382
2 383 361
2 382 383
2 395 384
2 385 373
2 384 483
2 386 440
2 337 387
2 387 386
2 388 317
2 336 389
2 489 388
2 390 272
2 391 273
2 390 391
2 392 459
2 381 393
2 415 417
2 394 346
2 395 347
2 394 395
2 326 396
2 397 327
2 396 397
2 398 348
2 399 360
2 398 399
2 328 400
2 364 401
2 469 475
2 342 402
2 403 436
2 402 403
2 404 335
2 405 367
2 404 405
2 323 406
2 407 337
2 406 407
2 370 408
2 409 381
2 408 409
2 410 322
2 411 406
2 410 411
2 329 412
2 413 370
2 412 413
2 383 414
2 415 393
2 414 415
2 428 490
2 392 477
2 417 416
2 418 263
2 419 454
2 418 419
2 401 420
2 421 434
2 420 421
2 372 422
2 286 423
2 495 479
2 382 424
2 425 452
2 424 425
2 423 426
2 427 287
2 426 427
2 461 428
2 429 471
2 465 429
2 391 430
2 431 389
2 430 431
2 432 500
2 501 433
2 433 432
2 434 365
2 435 387
2 434 435
2 436 396
2 437 386
2 436 437
2 438 401
2 373 463
2 438 508
2 440 397
2 441 325
2 440 441
2 345 442
2 443 438
2 442 443
2 444 390
2 445 430
2 444 445
2 487 446
2 447 481
2 446 447
2 464 506
2 507 449
2 449 448
2 450 402
2 451 442
2 450 451
2 452 414
2 453 417
2 452 453
2 454 334
2 455 405
2 454 455
2 420 456
2 457 336
2 493 457
2 458 398
2 459 399
2 458 459
2 453 460
2 461 470
2 460 461
2 372 462
2 463 510
2 503 463
2 448 464
2 465 428
2 464 465
2 466 385
2 439 467
2 511 466
2 468 372
2 505 469
2 509 469
2 470 416
2 471 480
2 470 471
2 250 472
2 473 159
2 472 473
2 474 371
2 475 443
2 474 475
2 425 476
2 491 460
2 476 477
2 250 478
2 479 423
2 478 479
2 480 377
2 481 400
2 480 481
2 499 482
2 483 385
2 482 483
2 376 484
2 485 427
2 484 485
2 486 374
2 487 429
2 486 487
2 457 488
2 489 389
2 488 489
2 490 238
2 491 477
2 490 491
2 384 492
2 493 456
2 492 493
2 494 446
2 495 422
2 494 495
2 496 424
2 497 476
2 496 497
2 498 159
2 499 344
2 498 499
2 500 394
2 501 492
2 500 501
2 502 250
2 503 462
2 502 503
2 504 447
2 505 400
2 504 505
2 506 374
2 507 375
2 506 507
2 508 467
2 509 468
2 508 509
2 510 439
2 511 467
2 510 511

CELL_TYPES 768
3
3
3
3
3
3
3
3
3
3
3
3
3
3
3
3
3
3
3
3
3
3
3
3
3
3
3
3
3
3
3
3
3
3
3
3
3
3
3
3
3
3
3
3
3
3
3
3
3
3
3
3
3
3
3
3
3
3
3
3
3
3
3
3
3
3
3
3
3
3
3
3
3
3
3
3
3
3
3
3
3
3
3
3
3
3
3
3
3
3
3
3
3
3
3
3
3
3
3
3
3
3
3
3
3
3
3
3
3
3
3
3
3
3
3
3
3
3
3
3
3
3
3
3
3
3
3
3
3
3
3
3
3
3
3
3
3
3
3
3
3
3
3
3
3
3
3
3
3
3
3
3
3
3
3
3
3
3
3
3
3
3
3
3
3
3
3
3
3
3
3
3
3
3
3
3
3
3
3
3
3
3
3
3
3
3
3
3
3
3
3
3
3
3
3
3
3
3
3
3
3
3
3
3
3
3
3
3
3
3
3
3
3
3
3
3
3
3
3
3
3
3
3
3
3
3
3
3
3
3
3
3
3
3
3
3
3
3
3
3
3
3
3
3
3
3
3
3
3
3
3
3
3
3
3
3
3
3
3
3
3
3
3
3
3
3
3
3
3
3
3
3
3
3
3
3
3
3
3
3
3
3
3
3
3
3
3
3
3
3
3
3
3
3
3
3
3
3
3
3
3
3
3
3
3
3
3
3
3
3
3
3
3
3
3
3
3
3
3
3
3
3
3
3
3
3
3
3
3
3
3
3
3
3
3
3
3
3
3
3
3
3
3
3
3
3
3
3
3
3
3
3
3
3
3
3
3
3
3
3
3
3
3
3
3
3
3
3
3
3
3
3
3
3
3
3
3
3
3
3
3
3
3
3
3
3
3
3
3
3
3
3
3
3
3
3
3
3
3
3
3
3
3
3
3
3
3
3
3
3
3
3
3
3
3
3
3
3
3
3
3
3
3
3
3
3
3
3
3
3
3
3
3
3
3
3
3
3
3
3
3
3
3
3
3
3
3
3
3
3
3
3
3
3
3
3
3
3
3
3
3
3
3
3
3
3
3
3
3
3
3
3
3
3
3
3
3
3
3
3
3
3
3
3
3
3
3
3
3
3
3
3
3
3
3
3
3
3
3
3
3
3
3
3
3
3
3
3
3
3
3
3
3
3
3
3
3
3
3
3
3
3
3
3
3
3
3
3
3
3
3
3
3
3
3
3
3
3
3
3
3
3
3
3
3
3
3
3
3
3
3
3
3
3
3
3
3
3
3
3
3
3
3
3
3
3
3
3
3
3
3
3
3
3
3
3
3
3
3
3
3
3
3
3
3
3
3
3
3
3
3
3
3
3
3
3
3
3
3
3
3
3
3
3
3
3
3
3
3
3
3
3
3
3
3
3
3
3
3
3
3
3
3
3
3
3
3
3
3
3
3
3
3
3
3
3
3
3
3
3
3
3
3
3
3
3
3
3
3
3
3
3
3
3
3
3
3
3
3
3
3
3
3
3
3
3
3
3
3
3
3
3
3
3
3
3
3
3
3
3
3
3
3
3
3
3
3
3
3
3
3
3
3
3
3
3
3
3
3
3
3
3
3
3
3
3
3
3
3
3
3
3
3
3
3
3
3
3
3
3
3
3
3
3
3
3
3
3
3
3
3
3
3
3
3
3
3
3
3
3
3
3
3
3
3
3
3
3
3
3
3
3
3
3
3
3
3
3
3
3
3
3
3
3
3
3
3
3

CELL_DATA 768
SCALARS current_Length float
LOOKUP_TABLE default
0.884492
1.02218
1.47769
1.47571
1.64854
1.47002
0.536682
1.02799
1.76593
1.10962
1.02071
1.22644
1.7768
1.48362
0.469508
0.178753
1.72396
1.02106
0.0383823
0.600116
0.562547
0.80927
0.300941
0.696334
1.28582
1.09678
0.784445
1.05052
0.957117
1.98675
0.390241
0.611306
1.86707
0.509069
1.33969
1.13265
0.771847
0.834226
1.0751
0.964142
1.32383
0.859272
2.02913
0.00249733
1.32351
1.58103
1.41928
0.977843
0.762958
0.944311
0.732224
0.756305
1.19291
1.56654
1.78314
1.02079
1.0048
1.53543
1.19893
1.45514
1.08687
0.633042
0.714192
0.523833
1.07903
0.838647
1.15196
2.14641
1.70412
1.50708
0.77457
1.15309
1.54781
0.903897
0.948013
0.720775
1.13435
1.69962
0.960113
1.14115
0.882767
1.85028
0.351943
0.668583
0.562291
0.556112
1.03383
0.00250027
1.40946
0.00249063
1.29128
1.70939
0.808861
0.720835
1.15686
1.68107
0.0025257
1.59675
0.276072
0.770654
1.3584
1.12456
0.614904
1.42369
0.245848
0.587434
1.35423
0.402406
0.85107
1.56628
1.02306
1.15864
1.03431
1.23765
1.0546
1.65921
0.791022
0.825892
1.41367
0.532599
0.527395
0.216515
1.16012
0.867583
0.664905
2.11018
0.689967
1.36763
2.24448
0.00974622
1.09912
1.05866
2.06879
1.3233
2.56913
0.929705
2.69819
1.11246
2.25725
2.2759
1.63872
3.13563
0.189314
3.22188
1.2934
2.09034
2.18303
0.81834
2.16812
2.07109
2.26571
0.653233
2.44594
3.22758
1.17926
2.49726
1.32122
2.40848
1.20262
2.0371
2.05566
1.39748
2.72768
0.950834
3.01125
0.721241
2.56831
2.64472
1.75476
2.81771
0.615446
2.76189
1.39441
2.05645
1.5557
1.93656
2.09023
1.18978
2.13168
1.02456
0.010061
0.562424
3.76001
0.929295
1.07626
2.74517
1.46646
1.65125
1.35454
0.359198
1.06495
1.84158
1.83197
1.06222
1.01136
1.32888
1.23609
0.97471
1.53882
1.34544
1.30228
0.952871
1.10241
2.07134
1.09483
1.60305
1.21038
0.360997
2.02554
0.00250345
1.72858
1.49436
1.31991
0.869335
1.64042
1.44835
0.630492
1.42981
1.77021
1.65646
1.65483
1.90389
0.755165
1.11613
2.17878
0.454854
0.646635
2.45494
0.0024995
1.31926
1.617
1.41752
1.79978
1.56168
0.674941
1.72377
2.71586
0.875712
1.82964
1.95015
0.695541
1.01173
1.45113
1.17753
1.11546
1.60037
0.529156
0.375506
3.06003
0.51744
0.969799
1.8561
0.618107
1.70238
2.84457
1.08993
0.965818
1.46201
0.74648
0.975727
2.67172
1.56854
0.829001
1.08801
0.172523
1.12319
1.80033
0.728867
1.73991
2.62704
2.08963
1.13194
2.02418
0.7636
1.86114
2.46048
1.16216
0.936502
1.77682
0.307296
1.05025
2.97446
1.39607
0.0677191
3.03019
1.50645
0.689978
2.08127
1.01717
0.672863
1.60168
0.896272
0.467795
3.19897
1.0134
1.06964
2.04419
1.15419
1.98895
0.943976
1.57095
1.7791
0.591353
2.06836
1.55601
0.815514
1.82719
0.677234
2.75109
0.899573
2.20302
1.82191
1.29013
1.57675
1.56889
1.192
1.25183
0.882871
1.24926
1.37329
0.366361
0.585089
1.44552
0.629732
0.00251198
1.15158
3.37831
1.28372
1.07972
2.38099
1.08117
0.00251898
3.38865
0.589548
1.37529
2.82075
0.66369
1.04417
2.09631
1.43726
0.952181
2.07607
0.93427
1.83543
1.70915
1.52041
0.988293
1.1664
0.819329
1.99561
1.76912
0.993912
0.966381
2.56595
0.755319
1.64436
1.40083
0.695046
1.62951
1.16803
0.932358
0.583532
0.601688
0.76564
0.866831
3.22149
2.32444
2.25583
0.784787
1.52914
0.332489
1.34747
0.511265
1.30205
2.56515
0.923281
0.945913
1.68971
0.60292
0.999546
1.50457
0.84991
1.94651
2.35873
1.805
1.53487
1.33437
2.09359
1.38545
0.359967
1.87101
0.796327
2.49907
0.796996
1.5073
2.40003
1.70651
0.00251248
1.20229
0.614464
0.547324
1.8347
0.984594
0.815544
1.43797
1.12538
1.01679
1.78128
1.68218
0.333341
2.1615
1.4263
1.17928
1.35402
0.375758
0.140416
1.29768
1.0003
0.627907
2.87041
1.37172
1.53115
0.925487
0.31863
1.17508
2.13124
0.698653
0.630653
2.45299
1.62386
2.43221
1.54665
1.01583
0.987859
1.62053
0.96757
0.212046
0.864721
1.11369
1.27831
2.56663
1.48311
1.2623
0.323427
2.03377
1.25939
0.908848
1.40469
0.413073
1.66993
0.91443
2.01405
2.17948
0.955086
1.58301
1.601
0.982331
1.12327
1.97786
0.993367
1.60048
0.470707
0.768539
1.57345
0.348125
0.656657
0.497933
2.69648
1.88721
1.25304
1.25581
0.441623
1.54162
0.76036
1.6669
1.35556
1.68911
1.47197
1.24592
1.99341
0.397472
1.00394
1.7624
1.04951
0.935823
2.59657
0.321535
1.41125
2.1209
1.29225
0.76334
1.19604
1.43451
0.907497
1.35708
1.83082
1.01507
1.11374
0.615382
1.30612
2.45717
1.16861
2.03225
1.96588
0.823152
1.14616
1.40767
0.674465
0.812068
3.20784
0.0568494
1.37324
2.29197
0.905361
1.59979
0.320343
1.10115
1.0683
2.02708
1.74129
0.787379
1.72226
2.10595
1.19942
1.94878
1.96864
1.48514
0.926142
1.31952
1.39936
1.25786
0.134687
1.75822
1.23244
0.67689
1.08111
2.62189
0.345356
0.372644
3.78316
0.924544
0.159056
1.04065
0.647778
1.46517
1.5561
1.35544
0.861265
0.905441
1.00867
1.27448
0.925953
1.31559
0.533154
2.10151
1.30465
0.80902
0.92092
0.465297
0.564254
0.755636
1.12267
1.44802
2.14797
1.21024
0.544929
1.35447
1.28593
1.11479
2.06793
1.69994
0.745809
0.754607
0.00250843
1.89189
1.50174
1.51118
1.09883
1.39161
0.656538
0.817613
1.66817
1.39617
1.54945
1.2476
1.96251
1.03041
2.26981
0.428719
1.18072
1.67007
2.32185
1.43213
1.8313
1.60257
1.01651
1.43613
1.46214
0.813435
2.06763
1.03651
1.38344
1.33582
1.41692
0.550529
1.65607
0.135193
1.55646
1.44159
1.37457
1.19129
1.66568
0.842303
1.54095
1.30776
1.05983
0.00250253
3.33955
0.850714
1.41338
1.66893
0.636393
1.17576
0.97195
1.14046
1.6062
0.716011
0.288184
1.00692
2.81994
1.10296
1.08941
1.01214
1.16779
0.93692
0.957155
1.31615
0.437016
1.19452
0.974949
1.89168
1.72229
1.58223
2.0491
0.830026
1.06911
0.62856
1.44421
1.9586
0.989265
2.16946
1.32639
0.537595
1.41031
0.465946
1.1647
1.88685
0.915359
0.640562
1.42341
1.51305
0.333298
1.42398
0.56326
1.00454
1.75672
1.06777
0.566172
2.8007
0.82083
1.14861
1.09141
0.573179
1.43684
1.98041
0.553953
1.20126
1.63168
1.98461
1.41485
1.02283
0.481532
1.19785
2.22811
1.56171
1.65269
0.593959
1.99637
1.13323
2.16268
0.924876
0.861875
1.27359
0.837042
1.65938
0.981799
1.15157
0.92093
1.47002
1.32379
0.811508
1.365
1.65641
1.14546
0.938882
1.67636
0.307625
0.834161
0.500368
1.33852
1.75653
1.3352
0.583803
1.29521
1.79486
1.43323
0.762303
1.5955
1.28955
0.951866
2.01164
1.80063
0.885756
0.905755
0.736519
1.87594
0.680681
1.65525
1.9715
0.511851
0.764603
1.6039
1.04608
1.11993
1.59197
1.1987
0.594291
1.48545
0.17154
1.31491
1.4662
1.2289
1.47715
1.07828
1.44954
1.02315
1.51357
1.62765
0.547284
1.99821
0.812787
1.10688
2.3477
1.02383
1.01226
1.94983
1.53508
0.899999
1.60931
1.12283
1.98041
2.1335
3.29029
3.33073
3.39301
33
127
0

SCALARS edge_force float
LOOKUP_TABLE default
0.5
0.5
0.5
0.5
0.5
0.5
0.5
0.5
0.5
0.5
0.5
0.5
0.5
0.5
0.5
0.5
0.5
0.5
0.5
0.5
0.5
0.5
0.5
0.5
0.5
0.5
0.5
0.5
0.5
0.5
0.5
0.5
0.5
0.5
0.5
0.5
0.5
0.5
0.5
0.5
0.5
0.5
0.5
0.5
0.5
0.5
0.5
0.5
0.5
0.5
0.5
0.5
0.5
0.5
0.5
0.5
0.5
0.5
0.5
0.5
0.5
0.5
0.5
0.5
0.5
0.5
0.5
0.5
0.5
0.5
0.5
0.5
0.5
0.5
0.5
0.5
0.5
0.5
0.5
0.5
0.5
0.5
0.5
0.5
0.5
0.5
0.5
0.5
0.5
0.5
0.5
0.5
0.5
0.5
0.5
0.5
0.5
0.5
0.5
0.5
0.5
0.5
0.5
0.5
0.5
0.5
0.5
0.5
0.5
0.5
0.5
0.5
0.5
0.5
0.5
0.5
0.5
0.5
0.5
0.5
0.5
0.5
0.5
0.5
0.5
0.5
0.5
0.5
0.5
0.5
0.5
0.5
0.5
2
0.5
2
0.5
2
0.5
0.5
2
0.5
2
0.5
2
0.5
0.5
2
0.5
2
0.5
2
0.5
0.5
2
0.5
2
0.5
2
0.5
0.5
2
0.5
2
0.5
2
0.5
0.5
2
0.5
2
0.5
2
0.5
2
2
2
2
2
2
2
0.5
0.5
2
0.5
0.5
0.5
0.5
0.5
0.5
0.5
0.5
0.5
0.5
0.5
0.5
0.5
0.5
0.5
0.5
0.5
0.5
0.5
0.5
0.5
0.5
0.5
0.5
0.5
0.5
0.5
0.5
0.5
0.5
0.5
0.5
0.5
0.5
0.5
0.5
0.5
0.5
0.5
0.5
0.5
0.5
0.5
0.5
0.5
0.5
0.5
0.5
0.5
0.5
0.5
2
0.5
0.5
2
0.5
0.5
0.5
0.5
0.5
0.5
0.5
0.5
0.5
0.5
0.5
0.5
0.5
0.5
2
0.5
0.5
0.5
0.5
2
0.5
0.5
0.5
0.5
0.5
0.5
0.5
0.5
0.5
2
0.5
2
0.5
0.5
0.5
2
0.5
0.5
0.5
0.5
0.5
2
0.5
2
0.5
0.5
2
0.5
0.5
0.5
0.5
0.5
2
0.5
0.5
0.5
0.5
0.5
0.5
0.5
0.5
0.5
0.5
0.5
0.5
0.5
0.5
2
0.5
0.5
0.5
0.5
0.5
0.5
0.5
0.5
0.5
0.5
0.5
0.5
0.5
0.5
0.5
0.5
0.5
0.5
2
0.5
0.5
2
0.5
2
0.5
0.5
2
0.5
0.5
0.5
0.5
0.5
0.5
0.5
0.5
0.5
0.5
0.5
0.5
0.5
0.5
0.5
0.5
0.5
2
0.5
0.5
0.5
0.5
0.5
0.5
0.5
0.5
0.5
0.5
0.5
2
0.5
0.5
0.5
0.5
0.5
0.5
0.5
0.5
0.5
2
0.5
0.5
0.5
0.5
0.5
0.5
0.5
0.5
2
0.5
0.5
0.5
0.5
0.5
0.5
0.5
2
0.5
0.5
0.5
2
0.5
0.5
0.5
0.5
0.5
0.5
0.5
0.5
0.5
0.5
0.5
0.5
0.5
2
0.5
0.5
0.5
0.5
0.5
0.5
0.5
0.5
2
0.5
0.5
0.5
0.5
0.5
0.5
0.5
0.5
0.5
0.5
0.5
0.5
2
0.5
0.5
0.5
0.5
0.5
0.5
0.5
2
0.5
0.5
0.5
0.5
0.5
0.5
0.5
0.5
0.5
0.5
0.5
0.5
2
0.5
0.5
0.5
0.5
0.5
0.5
0.5
0.5
0.5
0.5
0.5
0.5
0.5
0.5
0.5
0.5
0.5
0.5
0.5
0.5
0.5
0.5
2
0.5
0.5
2
0.5
0.5
0.5
0.5
0.5
2
0.5
0.5
0.5
0.5
0.5
0.5
0.5
0.5
0.5
0.5
0.5
0.5
0.5
0.5
0.5
0.5
0.5
0.5
0.5
0.5
0.5
0.5
0.5
2
0.5
0.5
0.5
0.5
0.5
0.5
0.5
0.5
0.5
0.5
0.5
2
0.5
0.5
2
0.5
0.5
0.5
0.5
0.5
0.5
0.5
0.5
0.5
0.5
0.5
0.5
2
0.5
2
0.5
0.5
0.5
0.5
0.5
0.5
0.5
0.5
0.5
0.5
0.5
0.5
0.5
0.5
0.5
0.5
0.5
0.5
0.5
0.5
0.5
0.5
0.5
0.5
2
0.5
0.5
0.5
0.5
2
0.5
0.5
0.5
0.5
0.5
0.5
0.5
0.5
0.5
0.5
0.5
0.5
0.5
0.5
0.5
0.5
0.5
2
0.5
0.5
0.5
0.5
0.5
2
0.5
0.5
0.5
0.5
0.5
2
0.5
0.5
0.5
0.5
0.5
0.5
0.5
0.5
0.5
0.5
0.5
0.5
0.5
0.5
0.5
0.5
0.5
2
0.5
0.5
0.5
0.5
0.5
0.5
0.5
0.5
0.5
0.5
0.5
2
0.5
0.5
0.5
0.5
0.5
0.5
0.5
0.5
0.5
0.5
0.5
0.5
2
0.5
0.5
0.5
0.5
0.5
0.5
0.5
2
0.5
0.5
0.5
0.5
0.5
0.5
0.5
0.5
0.5
0.5
0.5
0.5
0.5
0.5
0.5
0.5
0.5
2
0.5
0.5
0.5
0.5
0.5
0.5
2
0.5
0.5
0.5
0.5
0.5
0.5
0.5
0.5
0.5
0.5
0.5
0.5
0.5
2
0.5
0.5
0.5
0.5
0.5
0.5
0.5
0.5
0.5
0.5
0.5
0.5
0.5
0.5
0.5
0.5
0.5
0.5
0.5
0.5
0.5
2
0.5
0.5
0.5
0.5
0.5
0.5
0.5
0.5
0.5
0.5
0.5
0.5
0.5
0.5
0.5
0.5
0.5
2
0.5
0.5
0.5
0.5
0.5
0.5
0.5
0.5
0.5
0.5
0.5
0.5
0.5
0.5
0.5
0.5
0.5
0.5
0.5
2
0.5
0.5
2
0.5
0.5
0.5
0.5
0.5
0.5
0.5
0.5
0.5
2
0.5
0
0
0
0
0
0
