# vtk DataFile Version 3.0
2D-vertex
ASCII
DATASET UNSTRUCTURED_GRID

POINTS 806 float
0.364307 -3.63482 0
2.81411 -3.46831 0
3.21893 -2.52531 0
2.20977 -1.43928 0
-0.0534763 -1.25636 0
-0.795211 -2.73496 0
3.74644 -2.50025 0
4.33401 -1.65616 0
3.42599 -0.123397 0
2.37513 -0.420145 0
1.22043 0.859109 0
-0.461171 1.36161 0
-1.24408 0.0990758 0
-1.3994 0.0631559 0
-1.9421 -1.59932 0
-1.44514 -2.49303 0
4.90321 -1.82327 0
5.72819 -0.957523 0
3.91755 0.612312 0
3.64645 0.550049 0
2.78376 1.52535 0
1.71638 1.45542 0
1.12147 5.0874 0
0.259229 5.07561 0
-0.586152 3.21571 0
-1.8099 2.32466 0
-1.75236 0.418007 0
-3.0468 0.145099 0
-3.57389 -0.882167 0
-3.28194 -1.59787 0
6.79617 -0.963728 0
7.42836 -0.252012 0
7.27391 1.06384 0
5.07382 2.2743 0
5.55037 2.84511 0
3.22499 4.2186 0
2.48312 5.51436 0
1.59298 5.68636 0
0.702315 8.86015 0
-0.895176 8.92945 0
-0.606016 5.90115 0
-2.12441 4.98281 0
-3.19119 3.45336 0
-4.14868 3.49819 0
-4.90216 2.0958 0
-6.31467 1.80287 0
-6.61388 0.739029 0
-5.11673 -0.630465 0
7.7041 1.68056 0
7.37711 2.72871 0
6.62932 3.16354 0
5.92564 5.23549 0
3.59202 6.46774 0
3.53398 7.33097 0
2.10244 8.9611 0
2.6461 9.65854 0
-1.8626 10.3034 0
-1.7786 9.4116 0
-3.02326 8.10021 0
-2.71358 5.95542 0
-4.3492 6.28329 0
-5.74135 4.98024 0
-7.67433 3.50581 0
-7.53567 2.97182 0
8.2996 3.1242 0
8.29959 3.1267 0
6.84208 5.19851 0
7.29353 6.39075 0
6.04537 7.68525 0
6.26486 8.35962 0
5.49787 9.38493 0
5.24637 9.87965 0
-2.59045 12.5962 0
-2.83593 12.2881 0
-6.05398 9.43782 0
-5.38386 8.64119 0
-6.11219 7.27985 0
-6.02885 7.11248 0
-8.65639 4.0188 0
-8.50897 3.66685 0
9.83842 3.41062 0
10.168 4.35822 0
9.37642 5.35196 0
10.5528 5.76156 0
10.2684 7.28771 0
10.4665 7.99449 0
9.73936 12.6504 0
10.7782 14.7316 0
-9.66038 14.4941 0
-9.65966 14.4916 0
-10.0366 8.61289 0
-9.74476 8.0918 0
-10.0883 7.45978 0
-9.35121 6.36284 0
-10.1709 5.11091 0
-9.71551 4.13059 0
3.71797 -5.33344 0
4.92462 -4.79247 0
5.76154 -4.39231 0
8.11915 -2.81061 0
9.41746 -1.38137 0
10.7593 0.948097 0
10.8517 1.115 0
11.5556 2.1811 0
12.3509 4.1048 0
12.5643 4.88755 0
12.7628 8.40523 0
13.3739 15.1203 0
-13.2253 14.9659 0
-12.6407 8.57515 0
-12.5577 7.30039 0
-12.19 4.76164 0
-11.3207 2.82115 0
-10.4637 1.72213 0
-9.86236 1.00195 0
-8.96281 -0.318105 0
-7.03963 -2.45602 0
-4.97151 -3.85889 0
-2.87627 -4.85698 0
0.121741 -5.68214 0
12.6345 9.90274 0
8.56283 10.1255 0
-12.9143 11.0395 0
-10.0231 11.8689 0
-0.337026 2.87496 0
0.959652 2.96464 0
-1.86325 4.94837 0
-1.12351 3.21164 0
4.48653 4.4088 0
4.89734 5.3259 0
0.404726 10.4518 0
0.175501 9.36482 0
-1.11587 7.25167 0
-2.30725 6.9648 0
5.92469 5.23779 0
5.10809 7.21635 0
4.13242 7.72824 0
4.15134 9.07468 0
2.1429 10.6654 0
2.14084 10.664 0
-2.3793 10.5457 0
-3.94415 8.81677 0
-3.50115 8.11901 0
-4.47078 6.86971 0
1.33598 0.214279 0
-0.117592 -0.773015 0
6.4505 1.31631 0
5.34954 -0.213869 0
5.07181 2.27579 0
3.05402 3.10262 0
-8.90544 10.2408 0
-5.86653 10.1246 0
3.05152 3.10271 0
1.62271 3.79143 0
-9.36478 6.30433 0
-7.95541 5.69134 0
-0.825552 -2.75027 0
-1.25151 -5.43615 0
14.0236 32.6888 0
15.9949 33.3122 0
1.17648 -3.29581 0
1.29275 -1.83972 0
2.52374 7.72371 0
1.34275 6.70602 0
8.37897 9.64619 0
5.49816 9.38743 0
9.23147 20.37 0
0.0212351 12.3659 0
-2.72656 -1.85622 0
-3.44544 -4.6144 0
-4.33667 1.17287 0
-5.23677 -0.00676661 0
-5.61369 -3.47821 0
-4.53151 -1.02689 0
0.409972 7.18938 0
-0.509546 6.76289 0
9.34544 5.21317 0
7.74777 4.4333 0
5.53997 -1.48892 0
7.25171 -3.49543 0
1.67387 -5.75843 0
1.71856 -3.73033 0
-6.18486 0.118215 0
-7.78995 -1.76079 0
-5.34678 3.88054 0
-6.67822 2.64223 0
7.53818 1.19277 0
9.99444 -0.502784 0
-12.4351 6.14936 0
-9.37515 6.32381 0
12.8629 6.92712 0
10.7626 6.76579 0
-2.77107 2.51183 0
-3.68985 1.15883 0
-9.44541 0.435311 0
-6.66814 2.0714 0
-3.54411 5.76807 0
-4.31281 3.79426 0
-6.78527 5.87347 0
-6.36831 5.07346 0
8.27205 6.54921 0
8.48342 7.02951 0
-0.843853 12.2234 0
-0.638225 11.1455 0
12.6391 9.91171 0
10.0054 11.2379 0
9.91818 13.5386 0
1.8546 11.2045 0
7.89226 8.2997 0
9.1243 9.00057 0
-7.25991 7.38428 0
-7.59794 8.14009 0
-2.29841 14.5112 0
0.754699 13.6483 0
-9.95569 12.3705 0
-4.07509 12.1451 0
9.123 9.00272 0
12.648 9.43738 0
-10.7436 13.5324 0
-13.284 13.9624 0
-12.6914 9.55349 0
-9.16602 9.80796 0
12.8969 17.8767 0
10.2415 16.2591 0
8.24424 10.569 0
6.11448 10.7744 0
-9.16607 9.80544 0
-7.28099 9.10374 0
2.25453 14.1544 0
4.00115 12.5161 0
-4.38698 10.582 0
-3.61119 9.90519 0
4.73947 12.2538 0
3.81574 10.7418 0
13.0102 11.5933 0
10.2207 11.7772 0
-2.9144 14.1023 0
-4.53504 13.1079 0
-13.0448 27.248 0
0.00948358 15.2294 0
-6.46389 10.6848 0
-4.4125 12.3788 0
-12.7688 10.2657 0
-9.36502 10.8479 0
5.96018 16.2663 0
8.09083 14.3954 0
-1.14229 14.017 0
-0.669197 12.4225 0
-10.4303 17.7892 0
-13.5318 16.9304 0
11.7228 39.4135 0
2.19498 15.2126 0
-3.04013 16.6932 0
-10.3554 18.1808 0
-10.6997 12.8527 0
-13.1419 12.073 0
-6.56449 14.4549 0
-6.01624 13.3391 0
-6.33745 11.4077 0
-7.16471 12.3541 0
13.2763 13.2925 0
10.7144 14.0843 0
-11.1984 19.3792 0
-14.0647 19.5205 0
5.91381 11.8654 0
4.74045 12.2515 0
10.1486 15.4125 0
8.15702 14.9873 0
3.84058 13.6311 0
6.55398 15.6762 0
-2.10222 15.9001 0
-0.547683 16.2098 0
14.2809 20.7613 0
11.6502 21.6567 0
0.19952 15.1899 0
1.16941 15.9002 0
12.3188 23.4736 0
3.86523 15.7553 0
13.1247 12.4285 0
10.0414 13.0178 0
-8.41555 13.9704 0
-8.45252 13.1057 0
-9.26315 11.1789 0
-7.17134 11.9859 0
-10.0053 17.3676 0
-6.19083 16.201 0
9.43892 42.1505 0
10.0899 44.0791 0
1.63975 13.5264 0
2.41298 11.9914 0
-3.92875 15.7348 0
-3.85185 14.5899 0
-13.3551 16.1105 0
-10.2148 16.7225 0
-0.225821 17.6805 0
-0.343716 17.6044 0
7.60481 12.7597 0
7.19651 13.6602 0
8.49303 11.0822 0
7.46201 12.475 0
-11.171 18.7571 0
-13.766 17.82 0
-2.66134 16.6818 0
-1.69552 18.0636 0
1.46872 16.9719 0
3.18215 16.9448 0
6.15584 13.8343 0
5.90191 14.3954 0
-7.4735 17.5744 0
-7.2576 17.9766 0
-9.11227 15.2209 0
-6.40265 15.4184 0
3.84609 15.7114 0
4.58168 14.4899 0
-10.598 21.2926 0
-3.86709 17.995 0
14.7632 21.9318 0
12.5428 22.6707 0
-15.9135 26.7309 0
-13.637 26.556 0
8.42214 16.797 0
7.50874 15.7792 0
12.9276 18.3501 0
9.37263 19.5584 0
3.99396 18.1946 0
5.8472 18.8759 0
1.20678 19.5074 0
3.36513 18.6529 0
-0.834926 25.3477 0
-3.4792 24.1166 0
-3.16379 22.4319 0
-4.51068 19.8632 0
-6.19002 15.1197 0
-4.03915 14.4856 0
-9.80397 20.1455 0
-8.26817 19.0067 0
7.86014 23.42 0
7.21964 20.6328 0
-13.2365 15.3247 0
-9.47679 15.7678 0
-9.44602 15.845 0
-7.23976 16.8169 0
-0.197472 19.7408 0
0.0391437 19.4365 0
13.8682 31.602 0
2.21406 22.7528 0
16.5488 28.492 0
14.5784 28.4331 0
-14.9487 21.74 0
-12.2758 22.1916 0
-5.37151 16.5381 0
-5.17744 17.6986 0
7.95901 17.5736 0
6.76617 17.5407 0
1.27523 17.2879 0
1.87308 18.3406 0
10.4004 15.8919 0
13.288 16.1007 0
12.8592 18.0464 0
8.43204 17.1108 0
-11.8151 23.1172 0
-4.48464 20.1283 0
-2.14891 19.0331 0
-3.5165 18.9279 0
3.75917 23.1619 0
4.38236 22.5001 0
-5.80629 18.2777 0
-5.6557 19.3408 0
3.99873 17.7351 0
5.98915 16.776 0
-1.87265 22.2377 0
-0.248811 23.5247 0
2.09592 28.3402 0
11.8229 31.1065 0
-8.60128 41.6465 0
-9.90761 43.0488 0
-3.52046 43.9959 0
-2.45076 24.9274 0
-14.2884 20.0304 0
-12.0338 21.6559 0
-1.76873 19.6606 0
-3.53215 20.7219 0
-7.44363 21.0424 0
-5.91178 21.2606 0
13.1732 26.988 0
11.5192 29.7821 0
5.00892 20.9076 0
6.69001 21.2872 0
11.6196 21.7466 0
8.67574 22.3604 0
13.394 19.2048 0
11.3324 21.1908 0
-13.2588 25.5693 0
-3.7329 21.9118 0
16.1774 26.4092 0
14.2777 27.3103 0
2.33874 20.5647 0
3.53991 19.7723 0
-15.4995 23.4564 0
-13.3476 24.4178 0
-1.64447 27.016 0
4.1123 24.2889 0
0.311161 21.0328 0
1.92682 21.4512 0
-8.25856 19.093 0
-6.9418 19.9701 0
8.41357 18.6692 0
6.86827 19.4806 0
-1.43158 21.44 0
-2.12863 20.3833 0
12.8569 18.0564 0
8.48545 18.4536 0
-2.53409 24.6014 0
-1.32577 23.326 0
-5.80391 21.8005 0
-4.79173 22.3408 0
-4.45937 24.4106 0
-5.06974 23.7144 0
-14.0698 19.5292 0
-10.5525 20.9465 0
5.55767 24.3965 0
6.18058 23.3186 0
-0.0364839 29.6737 0
3.90102 42.7181 0
-8.2083 22.0449 0
-7.83788 23.0974 0
2.27732 44.412 0
2.18818 46.3569 0
-9.80072 28.5138 0
-7.34636 30.4724 0
9.81916 20.8811 0
8.56647 22.0125 0
15.1927 23.0801 0
12.785 23.9215 0
5.93192 22.7764 0
6.82448 21.6574 0
2.37358 21.0919 0
4.16764 21.7303 0
3.48065 24.892 0
5.29505 28.3967 0
4.84429 20.2383 0
5.93488 19.1945 0
1.77283 23.1771 0
2.03766 24.3735 0
13.0813 18.703 0
9.79906 20.7092 0
-4.95053 36.7634 0
-3.79667 31.9467 0
-13.3971 29.0307 0
-15.8393 29.1449 0
-0.0927668 21.5298 0
0.380882 22.8288 0
-7.2179 23.219 0
-6.86819 23.9319 0
-9.77689 20.5321 0
-7.44352 21.0399 0
9.00372 25.8535 0
10.0667 24.1468 0
-15.881 25.3537 0
-13.52 25.2704 0
-7.25908 24.7419 0
-7.15081 26.3078 0
4.6997 32.4185 0
8.34978 31.4334 0
-13.2675 31.1277 0
-9.35431 29.4593 0
8.81338 26.3252 0
5.84673 27.3419 0
2.54759 27.9067 0
1.50765 26.1677 0
-4.59465 26.1805 0
-4.47514 26.2416 0
10.6023 41.5348 0
11.8731 42.7967 0
0.0330261 24.5078 0
1.36486 24.944 0
-9.37012 24.0736 0
-9.48036 24.5574 0
5.28979 36.7067 0
4.38992 41.0258 0
-3.09688 25.8223 0
-2.46893 26.9363 0
14.2681 28.8161 0
12.2176 28.7051 0
-6.26846 43.4565 0
-6.92005 45.1897 0
-7.58744 41.9311 0
-5.99321 35.586 0
10.3405 23.6759 0
9.95827 22.6631 0
-10.3491 26.7075 0
-8.93922 25.0842 0
12.9648 26.3287 0
10.65 25.625 0
-0.872013 38.1901 0
-0.170325 31.4855 0
-9.84202 22.0706 0
-10.2756 23.1355 0
16.4988 30.1885 0
14.6739 29.9311 0
15.5681 24.095 0
13.3014 25.1184 0
13.0385 37.1987 0
10.5756 34.628 0
-1.37743 29.7357 0
-1.1716 27.9782 0
-12.3625 37.2419 0
-13.9283 37.7342 0
3.55732 25.7884 0
2.3459 26.5684 0
7.67015 30.4319 0
7.27597 27.2316 0
6.10182 25.0312 0
5.0675 25.9259 0
-5.55223 29.4069 0
-4.82167 30.0512 0
8.30011 24.2023 0
8.08979 24.6317 0
5.99155 30.2887 0
6.44705 32.9212 0
-13.2687 29.2396 0
-10.4224 28.4453 0
12.6036 39.3389 0
13.9285 40.6127 0
-8.52903 27.4678 0
-5.49743 28.7224 0
-10.0679 38.781 0
-8.60687 34.4331 0
3.44149 31.7925 0
2.78554 32.3369 0
-15.881 27.9781 0
-13.2409 27.764 0
-15.7285 30.6793 0
-13.8542 30.4427 0
-0.621438 40.6702 0
[...]
CELL_DATA 1209
SCALARS current_Length float
LOOKUP_TABLE default
0.880089
1.02622
1.48252
1.46719
1.65422
1.46773
0.528099
1.02846
1.78153
1.09195
1.03246
1.21751
1.75508
1.48557
0.487576
0.159418
1.74881
1.02258
0.0339852
0.593229
0.563745
0.834503
0.278161
0.708615
1.30209
1.06967
0.775601
1.05982
0.862324
2.04301
0.422105
0.537378
1.90752
0.500503
1.32289
1.1546
0.772957
0.825458
1.06799
0.951951
1.32489
0.861246
2.02464
0.00249758
1.2758
1.59992
1.49311
0.906607
0.762278
1.04991
0.729539
0.867119
1.1959
1.57748
1.86473
0.979216
0.958537
1.59199
1.20049
1.44257
1.10512
0.635145
0.706848
0.515237
1.09797
0.865028
1.12496
2.18818
1.73426
1.4624
0.865187
1.08389
1.40376
0.884302
1.12529
0.895705
1.00643
1.80801
1.0881
1.13714
0.851395
1.90684
0.338526
0.633858
0.5517
0.570926
1.00369
0.00249986
1.41835
0.00248825
1.27484
1.79823
0.7183
0.709186
1.28044
1.61451
0.00251599
1.67032
0.393903
0.570725
1.2474
1.041
0.478265
1.54392
0.186976
0.59889
1.45166
0.381584
0.850037
1.5648
1.00328
1.18641
0.991273
1.24562
1.02592
1.6285
0.734008
0.983682
1.24668
0.475623
1.36212
0.00257394
1.30695
0.886643
0.597234
2.14737
0.719377
1.32161
2.32742
0.0457848
1.08094
1.065
2.0726
1.32237
2.57729
0.927658
2.70864
1.10518
2.27185
2.28734
1.64014
3.14178
0.190788
3.24811
1.2775
2.11197
2.19753
0.811328
2.19322
2.06131
2.33274
0.465556
2.62471
3.59606
1.05822
2.60444
1.27746
2.47453
1.15754
2.04904
2.0715
1.39366
2.7573
0.938197
3.04859
0.703513
2.57585
2.65145
1.75447
2.82256
0.618703
2.76341
1.39511
2.06164
1.554
1.93089
2.08161
0.838727
2.12631
1.02291
0.0100791
0.54609
4.07779
0.787386
1.02647
3.00782
1.51844
1.68831
1.29978
0.263417
1.12155
1.88771
1.89127
1.03227
1.00491
1.2526
1.15581
1.11089
1.69223
1.34232
1.22543
0.918235
1.04803
2.14045
1.10179
1.38181
1.34657
0.611308
1.74904
0.00250151
1.80125
1.45038
1.38847
0.826509
1.57686
1.58143
0.6551
1.42461
1.75716
1.6772
1.65323
1.88509
0.743733
1.12899
2.18063
0.505186
0.711859
2.48159
0.00249814
1.38953
1.58614
1.44017
1.81349
1.5369
0.670868
1.7249
2.71945
0.927309
1.81856
2.0675
0.694732
1.00064
1.46073
1.30715
1.05058
1.55899
0.513389
0.552875
2.89241
0.661215
0.692743
2.02892
0.612532
1.70285
2.85032
1.08239
0.95629
1.48382
0.746537
0.968501
2.67956
1.69615
0.778807
1.01361
0.142207
1.18567
1.77785
0.719204
1.73926
2.63746
2.08781
1.12645
2.02859
0.754634
1.85928
2.47123
1.16834
0.918612
1.81828
0.294044
1.05111
2.98465
1.40921
0.0220697
3.06497
1.4815
0.718763
2.10646
1.03101
0.646969
1.63547
0.89473
0.443895
3.22335
0.955837
1.03756
2.11821
1.18423
2.04039
0.902144
1.62881
1.8036
0.524752
1.78594
1.48606
1.09731
1.72204
0.580618
2.94881
0.965274
2.17028
2.01828
1.40102
1.67741
1.41744
1.15245
1.27168
0.827954
1.54058
1.47735
0.194099
0.506104
1.59394
0.739349
0.00251382
1.03852
3.55168
1.44738
1.00526
2.57656
0.979658
0.00252229
3.53459
0.173796
1.8972
3.10935
0.570298
1.10929
2.13963
1.47647
1.01444
2.01145
0.878837
1.67263
1.67014
1.54864
1.13821
1.0295
0.783554
1.67459
1.77039
0.843004
0.997085
2.79551
0.739359
1.49914
1.05666
0.598671
1.67228
1.4095
0.818954
0.410453
0.733933
0.716361
0.761489
3.45325
2.15638
2.12226
0.595524
1.25733
0.264807
1.66324
0.398679
0.919904
3.21824
0.99054
1.05985
1.55154
0.378958
0.998572
1.44303
0.681091
1.89475
2.56364
1.91342
1.49108
1.24319
2.15603
1.51303
0.368233
1.8304
0.650482
2.68143
0.910843
1.16761
2.86973
1.6639
0.00250892
1.23524
0.400064
0.837168
2.03652
1.12649
1.02344
1.32361
1.40261
1.12762
1.58508
1.26602
0.0949901
2.7789
1.63849
1.23477
1.20219
0.646503
0.0478998
1.98859
0.877171
0.535188
3.13904
1.34886
1.67334
0.865558
0.346259
1.01474
2.24211
0.678272
0.810689
2.54024
1.31628
2.19645
2.03558
0.893418
0.964862
1.71876
0.885962
0.21441
1.14747
0.794611
1.16662
3.1994
1.33294
1.30567
0.140295
2.13735
1.15778
0.988717
1.52037
0.318468
1.7329
0.622689
1.72659
2.75908
0.961101
1.42767
1.68591
1.11268
1.37164
1.71364
1.05513
1.43726
0.615912
0.792701
1.54227
0.456476
0.910349
0.366669
2.71681
1.72483
1.13433
1.42592
0.349117
1.48222
0.996558
1.22594
0.833477
2.34019
1.37763
1.05662
2.28327
0.313884
0.960292
1.36759
0.38491
0.823777
3.7547
0.45957
1.0902
1.97452
1.16979
0.778088
1.34365
1.35771
1.02334
1.66959
1.71389
1.08482
1.12229
0.763015
1.46414
2.24242
1.59117
2.24471
1.86978
1.68262
0.976244
1.7778
0.359
0.657265
3.78575
0.0830276
1.21641
2.41087
1.0703
1.77588
0.385499
1.0979
1.20774
2.1044
1.69716
0.492912
1.97124
1.83266
0.587823
2.71081
1.65131
1.34346
1.17661
1.02548
1.62089
1.19329
0.370532
1.52438
1.21062
0.541502
0.98419
2.89512
0.0102469
0.661789
4.52494
1.03397
0.26639
1.53958
0.733679
1.36504
1.37163
1.59834
0.79915
0.909037
0.854897
1.25859
1.07368
1.13638
0.510492
2.20943
1.34181
0.938533
1.09514
1.34238
0.508673
0.214157
0.386558
2.15327
1.91649
1.40743
0.336479
1.16413
0.546826
1.481
2.77941
1.57331
0.770987
0.807326
0.00250997
1.82173
1.54731
1.15055
1.3588
1.71945
0.689237
0.841894
1.72341
1.30625
1.33715
1.89737
1.79143
0.563906
2.86255
0.396948
1.20675
1.40146
2.11567
1.16239
2.10255
1.54892
1.13297
1.43899
1.00898
1.3403
2.35692
1.42303
1.18106
1.23194
1.3885
0.573311
1.66896
0.0868494
1.43183
1.58216
1.30784
1.20458
1.74534
0.911501
1.44377
1.26593
0.302133
0.227242
4.3895
1.0622
1.21796
1.75687
0.550579
1.14243
1.14736
0.625466
0.697919
0.925898
0.0100681
0.879326
3.79212
1.44936
0.59653
1.24489
1.40581
0.513603
0.969936
1.26085
0.631788
1.11574
1.14925
2.10442
1.94697
1.64661
0.152952
1.63165
1.54464
0.364656
1.68795
1.08215
0.789887
2.55047
1.57401
0.393891
1.43135
0.52841
1.17667
1.90425
0.873325
0.608747
0.899647
1.38514
0.330407
1.50964
0.61213
1.53332
1.22535
0.591261
0.173091
3.84681
0.00250112
1.29657
1.54924
1.27662
1.60208
2.44486
0.640412
1.43487
1.38269
2.00287
1.81155
0.794042
0.387562
1.1816
2.38799
0.836082
0.897577
1.29854
1.93525
0.869825
2.36248
0.899413
1.84827
0.682803
0.993158
1.21036
0.912702
0.901952
1.04557
2.08423
0.268182
1.19037
1.27835
0.626013
1.27765
0.92911
0.886927
1.44064
0.134222
1.13902
1.50338
1.79095
1.0227
0.882131
1.40144
1.81682
1.71465
0.49619
1.40219
1.76152
1.32169
1.10379
0.828303
1.27882
1.18661
0.852833
2.05352
1.30697
1.41513
1.85168
1.05301
1.09514
1.03947
0.544715
1.31779
1.08256
0.656648
0.75517
1.17998
0.691428
1.66206
1.82874
1.59694
1.72014
1.8747
1.63391
1.30382
1.14984
1.59996
0.900981
1.84297
1.85257
0.755426
2.48701
0.883917
1.70608
0.837625
1.29615
1.07205
0.838792
1.15883
1.44479
1.64131
0.582171
1.35341
1.44083
1.25737
1.4335
0.999785
2.02771
1.61631
0.0973386
0.686704
1.05739
0.974051
1.76742
1.52573
0.478178
1.68469
1.67471
0.153862
0.245222
0.583031
1.92431
1.43497
2.23534
1.83797
1.4084
1.34797
1.56935
0.7025
1.226
1.16081
1.40531
1.22238
0.852406
1.24755
0.551983
2.64877
1.53832
1.338
1.88917
2.01021
1.2663
1.30423
1.64797
1.64542
0.393964
0.851842
1.27058
1.46187
0.674342
1.42886
0.69446
0.672241
1.25713
0.904979
0.00250134
1.64067
1.3697
0.630389
0.89432
1.57734
1.68964
1.22774
1.67044
1.84458
0.798622
1.40899
0.77435
0.449252
1.90321
0.2602
1.36862
1.73154
1.24745
1.1931
1.39312
2.31879
2.13046
0.911073
1.00056
0.927484
1.16156
0.737397
1.20157
1.41707
0.794013
0.556741
3.13754
1.17081
1.16397
0.643178
1.7402
2.57609
1.75187
0.540576
0.64715
2.63176
0.674177
1.26452
1.88598
2.16304
1.55062
0.833018
1.76676
1.67261
0.902598
0.917898
0.731987
1.12794
0.470049
1.28232
2.26015
0.127367
1.52063
0.490764
1.6176
0.749086
2.04125
1.04067
1.07096
1.11598
1.00577
1.21984
1.04297
0.841284
0.933863
0.876181
1.45822
0.594795
0.877664
1.56562
0.454444
2.14221
1.21519
0.547881
0.966207
1.0137
1.07506
1.97968
1.11977
1.21273
1.05439
0.911319
0.787168
2.19227
1.04299
1.17809
2.1305
0.853522
1.15271
1.95206
0.754867
1.2917
2.03086
1.1721
2.0265
1.98108
0.949684
1.49862
1.37022
1.30769
1.78167
0.0851021
0.746072
0.52223
2.31444
0.920957
1.41132
0.741381
1.02747
1.12239
1.03519
1.64551
1.70209
1.24042
0.996128
1.24167
1.19787
0.169431
1.22967
1.84644
1.37004
1.75566
1.22614
0.51135
0.79422
1.42393
0.466264
0.490918
0.524028
1.43367
0.63068
0.909221
1.4602
0.472005
1.89036
1.03159
0.961508
1.566
1.53389
0.774992
1.88197
1.59692
0.968193
1.93704
1.32336
1.57919
1.70518
1.26295
1.26579
0.860598
1.98519
1.44744
1.06068
1.48548
1.11104
1.4633
1.06508
0.959844
1.6487
1.57422
0.10808
1.00056
1.3431
0.657655
0.826427
0.900981
2.08102
1.38615
0.865371
1.49709
2.1442
2.14408
1.30949
1.97174
2.05046
1.5874
0.7035
0.847705
0.317457
1.36953
0.94812
1.06201
1.19818
1.91307
1.72109
0.181907
1.83402
1.98783
1.69816
1.09378
1.25313
0.703604
0.84039
0.809248
1.33561
1.06604
1.54022
1.31474
0.635772
0.858269
1.23242
1.34831
0.897462
2.02691
1.4218
0.25996
2.62323
0.532441
1.58129
2.23748
1.72805
0.419767
0.914728
1.07568
0.672174
0.97634
1.17332
1.36927
0.401606
2.36428
1.50085
1.8272
0.853125
0.667968
2.19034
1.12621
0.777605
0.7858
0.709367
0.757567
1.67721
0.291465
0.89035
2.09215
1.59359
0.616824
1.14579
0.799989
1.36566
1.50015
0.23574
1.3208
1.43934
0.25169
0.37862
2.21082
0.92211
1.19118
0.800429
0.632075
0.864731
1.09775
1.43101
0.805126
1.20525
1.32267
1.10034
1.01964
1.36295
1.03276
0.947557
0.778756
1.10596
1.15345
1.11076
1.29707
2.22236
1.191
1.20061
1.62094
0.643779
1.07012
1.84502
1.38768
1.34044
1.52653
1.21848
1.43326
1.12136
1.21607
1.13638
0.394155
1.62327
1.24702
1.39441
0.643682
1.0863
1.70483
1.21842
1.91191
1.20859
0.936465
1.13542
1.29162
1.55668
1.57615
0.84787
0.953884
1.39187
1.04357
0.980657
1.56822
1.77908
0.641816
1.88428
1.64045
2.01828
1.42563
0.982251
0.831226
1.23765
1.79628
0.581788
1.36304
1.68075
1.05378
0.988634
2.3957
0.855214
1.05404
1.69736
1.98513
1.13775
2.08524
1.48733
1.25406
1.4056
1.20247
0.0025021
1.49273
0.805397
1.31211
1.62812
1.71103
0.562235
1.88944
1.10847
0.848906
1.46201
1.37706
0.998708
1.66819
1.34565
1.52915
1.06439
1.21842
0.518293
1.35841
1.15266
1.00536
1.90115
0.820869
1.01554
2.06566
1.21478
0.806137
2.62492
0.933193
1.39339
1.898
1.15816
0.50395
1.39554
1.46774
0.905783
1.69216
1.22204
0.524531
2.69871
0.825082
1.10812
1.52018
3.29173
3.27807
3.30416
166
232
3.25224
3.32209
3.34852
3.38057
198
323
1
0
0
0

SCALARS edge_force float
LOOKUP_TABLE default
0.5
0.5
0.5
0.5
0.5
0.5
0.5
0.5
0.5
0.5
0.5
0.5
0.5
0.5
0.5
0.5
0.5
0.5
0.5
0.5
0.5
0.5
0.5
0.5
0.5
0.5
0.5
0.5
0.5
0.5
0.5
0.5
0.5
0.5
0.5
0.5
0.5
0.5
0.5
0.5
0.5
0.5
0.5
0.5
0.5
0.5
0.5
0.5
0.5
0.5
0.5
0.5
0.5
0.5
0.5
0.5
0.5
0.5
0.5
0.5
0.5
0.5
0.5
0.5
0.5
0.5
0.5
0.5
0.5
0.5
0.5
0.5
0.5
0.5
0.5
0.5
0.5
0.5
0.5
0.5
0.5
0.5
0.5
0.5
0.5
0.5
0.5
0.5
0.5
0.5
0.5
0.5
0.5
0.5
0.5
0.5
0.5
0.5
0.5
0.5
0.5
0.5
0.5
0.5
0.5
0.5
0.5
0.5
0.5
0.5
0.5
0.5
0.5
0.5
0.5
0.5
0.5
0.5
0.5
0.5
0.5
0.5
0.5
0.5
0.5
0.5
0.5
0.5
0.5
0.5
0.5
0.5
0.5
2
0.5
2
0.5
2
0.5
0.5
2
0.5
2
0.5
2
0.5
0.5
2
0.5
2
0.5
2
0.5
0.5
2
0.5
2
0.5
2
0.5
0.5
2
0.5
2
0.5
2
0.5
0.5
2
0.5
2
0.5
2
0.5
2
2
2
2
2
2
2
0.5
0.5
2
0.5
0.5
0.5
0.5
0.5
0.5
0.5
0.5
0.5
0.5
0.5
0.5
0.5
0.5
0.5
0.5
0.5
0.5
0.5
0.5
0.5
0.5
0.5
0.5
0.5
0.5
0.5
0.5
0.5
0.5
0.5
0.5
0.5
0.5
0.5
0.5
0.5
0.5
0.5
0.5
0.5
0.5
0.5
0.5
0.5
0.5
0.5
0.5
0.5
0.5
0.5
2
0.5
0.5
2
0.5
0.5
0.5
0.5
0.5
0.5
0.5
0.5
0.5
0.5
0.5
0.5
0.5
0.5
2
0.5
0.5
0.5
0.5
2
0.5
0.5
0.5
0.5
0.5
0.5
0.5
0.5
0.5
2
0.5
2
0.5
0.5
0.5
2
0.5
0.5
0.5
0.5
0.5
2
0.5
2
0.5
0.5
2
0.5
0.5
0.5
0.5
0.5
2
0.5
0.5
0.5
0.5
0.5
0.5
0.5
0.5
0.5
0.5
0.5
0.5
0.5
0.5
2
0.5
0.5
0.5
0.5
0.5
0.5
0.5
0.5
0.5
0.5
0.5
0.5
0.5
0.5
0.5
0.5
0.5
0.5
2
0.5
0.5
2
0.5
2
0.5
0.5
2
0.5
0.5
0.5
0.5
0.5
0.5
0.5
0.5
0.5
0.5
0.5
0.5
0.5
0.5
0.5
0.5
0.5
2
0.5
0.5
0.5
0.5
0.5
0.5
0.5
0.5
0.5
0.5
0.5
2
0.5
0.5
0.5
0.5
0.5
0.5
0.5
0.5
0.5
2
0.5
0.5
0.5
0.5
0.5
0.5
0.5
0.5
2
0.5
0.5
0.5
0.5
0.5
0.5
0.5
2
0.5
0.5
0.5
2
0.5
0.5
0.5
0.5
0.5
0.5
0.5
0.5
0.5
0.5
0.5
0.5
0.5
2
0.5
0.5
0.5
0.5
0.5
0.5
0.5
0.5
2
0.5
0.5
0.5
0.5
0.5
0.5
0.5
0.5
0.5
0.5
0.5
0.5
2
0.5
0.5
0.5
0.5
0.5
0.5
0.5
2
0.5
0.5
0.5
0.5
0.5
0.5
0.5
0.5
0.5
0.5
0.5
0.5
2
0.5
0.5
0.5
0.5
0.5
0.5
0.5
0.5
0.5
0.5
0.5
0.5
0.5
0.5
0.5
0.5
0.5
0.5
0.5
0.5
0.5
0.5
2
0.5
0.5
2
0.5
0.5
0.5
0.5
0.5
2
0.5
0.5
0.5
0.5
0.5
0.5
0.5
0.5
0.5
0.5
0.5
0.5
0.5
0.5
0.5
0.5
0.5
0.5
0.5
0.5
0.5
0.5
0.5
2
0.5
0.5
0.5
0.5
0.5
0.5
0.5
0.5
0.5
0.5
0.5
2
0.5
0.5
2
0.5
0.5
0.5
0.5
0.5
0.5
0.5
0.5
0.5
0.5
0.5
0.5
2
0.5
2
0.5
0.5
0.5
0.5
0.5
0.5
0.5
0.5
0.5
0.5
0.5
0.5
0.5
0.5
0.5
0.5
0.5
0.5
0.5
0.5
0.5
0.5
0.5
0.5
2
0.5
0.5
0.5
0.5
2
0.5
0.5
0.5
0.5
0.5
0.5
0.5
0.5
0.5
0.5
0.5
0.5
0.5
0.5
0.5
0.5
0.5
2
0.5
0.5
0.5
0.5
0.5
2
0.5
0.5
0.5
0.5
0.5
2
0.5
0.5
0.5
0.5
0.5
0.5
0.5
0.5
0.5
0.5
0.5
0.5
0.5
0.5
0.5
0.5
0.5
2
0.5
0.5
0.5
0.5
0.5
0.5
0.5
0.5
0.5
0.5
0.5
2
0.5
0.5
0.5
0.5
0.5
0.5
0.5
0.5
0.5
0.5
0.5
0.5
2
0.5
0.5
0.5
0.5
0.5
0.5
0.5
2
0.5
0.5
0.5
0.5
0.5
0.5
0.5
0.5
0.5
0.5
0.5
0.5
0.5
0.5
0.5
0.5
0.5
2
0.5
0.5
0.5
0.5
0.5
0.5
2
0.5
0.5
0.5
0.5
0.5
0.5
0.5
0.5
0.5
0.5
0.5
0.5
0.5
2
0.5
0.5
0.5
0.5
0.5
0.5
0.5
0.5
0.5
0.5
0.5
0.5
0.5
0.5
0.5
0.5
0.5
0.5
0.5
0.5
0.5
2
0.5
0.5
0.5
0.5
0.5
0.5
0.5
0.5
0.5
0.5
0.5
0.5
0.5
0.5
0.5
0.5
0.5
2
0.5
0.5
0.5
0.5
0.5
0.5
0.5
0.5
0.5
0.5
0.5
0.5
0.5
0.5
0.5
0.5
0.5
0.5
0.5
2
0.5
0.5
2
0.5
0.5
0.5
0.5
0.5
0.5
0.5
0.5
0.5
2
0.5
0.5
0.5
0.5
0.5
0.5
0.5
0.5
0.5
0.5
0.5
0.5
0.5
0.5
0.5
0.5
0.5
0.5
0.5
0.5
0.5
0.5
0.5
2
0.5
0.5
0.5
0.5
0.5
0.5
0.5
0.5
0.5
0.5
2
0.5
0.5
2
0.5
0.5
0.5
0.5
0.5
0.5
0.5
0.5
0.5
0.5
0.5
0.5
0.5
0.5
0.5
0.5
0.5
0.5
0.5
0.5
0.5
0.5
0.5
2
0.5
0.5
0.5
0.5
0.5
0.5
0.5
0.5
0.5
0.5
0.5
0.5
0.5
0.5
0.5
0.5
0.5
0.5
0.5
0.5
0.5
0.5
0.5
2
0.5
0.5
0.5
0.5
0.5
0.5
2
0.5
2
0.5
0.5
0.5
0.5
0.5
0.5
0.5
0.5
0.5
0.5
0.5
0.5
0.5
0.5
0.5
0.5
0.5
0.5
0.5
0.5
2
0.5
0.5
0.5
0.5
0.5
0.5
0.5
0.5
0.5
0.5
0.5
0.5
0.5
0.5
2
0.5
0.5
0.5
0.5
0.5
0.5
0.5
0.5
0.5
0.5
0.5
2
0.5
0.5
0.5
0.5
0.5
0.5
0.5
0.5
0.5
0.5
0.5
0.5
2
0.5
0.5
0.5
0.5
0.5
0.5
0.5
0.5
0.5
0.5
0.5
0.5
0.5
0.5
0.5
0.5
0.5
0.5
0.5
0.5
0.5
0.5
0.5
0.5
0.5
0.5
0.5
0.5
0.5
0.5
0.5
0.5
0.5
0.5
0.5
0.5
0.5
0.5
0.5
0.5
0.5
0.5
0.5
2
0.5
0.5
2
0.5
0.5
0.5
0.5
0.5
0.5
0.5
0.5
0.5
0.5
0.5
0.5
0.5
0.5
0.5
0.5
0.5
0.5
0.5
0.5
0.5
0.5
0.5
0.5
2
0.5
0.5
2
0.5
2
0.5
0.5
0.5
0.5
0.5
0.5
0.5
0.5
0.5
0.5
0.5
0.5
0.5
0.5
0.5
0.5
0.5
0.5
0.5
0.5
0.5
0.5
0.5
0.5
0.5
0.5
0.5
0.5
0.5
0.5
0.5
0.5
2
0.5
0.5
0.5
0.5
0.5
0.5
0.5
0.5
0.5
0.5
0.5
0.5
0.5
0.5
2
0.5
0.5
0.5
2
0.5
0.5
0.5
0.5
0.5
0.5
0.5
0.5
0.5
0.5
0.5
0.5
0.5
0.5
0.5
0.5
0.5
0.5
0.5
0.5
2
0.5
0.5
0.5
0.5
0.5
0.5
0.5
0.5
0.5
0.5
0.5
0.5
0.5
0.5
0.5
0.5
0.5
0.5
0.5
2
0.5
0.5
0.5
2
0.5
0.5
0.5
0.5
0.5
0.5
0.5
0.5
0.5
0.5
0.5
0.5
0.5
0.5
0.5
0.5
0.5
0.5
0.5
0.5
0.5
0.5
0.5
0.5
0.5
0.5
0.5
0.5
0.5
0.5
0.5
0.5
2
0.5
0.5
0.5
0.5
0.5
0.5
0.5
0.5
0.5
0.5
0.5
0.5
0.5
2
0.5
0.5
0.5
0.5
0.5
2
0.5
0.5
0.5
0.5
0.5
0.5
0.5
0.5
0.5
0.5
0.5
2
0.5
0.5
0.5
0.5
0.5
0.5
0.5
0.5
0.5
0.5
0.5
0.5
0.5
0.5
0.5
0.5
0.5
0.5
0.5
0.5
2
0.5
0.5
0.5
0.5
0.5
0.5
0.5
0.5
0.5
0.5
0.5
2
0.5
0.5
0.5
0.5
0.5
0
0
0
0
0
0
0
0
0
0
0
0
0
0
0
