# vtk DataFile Version 3.0
2D-vertex
ASCII
DATASET UNSTRUCTURED_GRID

POINTS 272 float
0.311481 -2.07922 0
2.99297 -1.7788 0
3.33999 -0.890246 0
2.35484 0.100519 0
-0.119634 0.239209 0
-0.856138 -1.12848 0
4.00091 -0.828581 0
4.54805 0.0702023 0
3.65756 1.39141 0
2.47673 1.01075 0
1.27201 2.0807 0
-0.541047 2.65084 0
-1.34335 1.43663 0
-1.6579 1.37198 0
-2.15786 -0.0297299 0
-1.69672 -0.867116 0
5.14538 -0.0477261 0
6.05297 0.962688 0
4.22523 2.16838 0
3.84587 2.05872 0
3.06117 2.85907 0
1.81228 2.73499 0
1.2356 5.93216 0
0.0717735 5.85249 0
-0.615661 4.09821 0
-2.05426 3.43445 0
-2.07128 1.80068 0
-3.50871 1.55808 0
-3.96558 0.772569 0
-3.69759 0.0733137 0
7.16956 1.06223 0
7.83608 2.01729 0
7.48444 3.24234 0
5.36374 3.93351 0
5.9243 4.66587 0
3.4631 5.49132 0
2.72296 6.50178 0
1.69116 6.58997 0
0.61332 9.41708 0
-1.02809 9.17831 0
-0.736471 6.59123 0
-2.61648 5.84219 0
-3.57819 4.66366 0
-4.77188 4.83112 0
-5.45019 3.84561 0
-6.93887 3.72832 0
-7.25412 2.9106 0
-5.66717 1.22268 0
8.00718 4.19892 0
7.6573 4.98557 0
7.07676 5.18704 0
6.14253 7.11407 0
3.75235 7.70075 0
3.56177 8.47028 0
2.06761 9.68114 0
2.63701 10.6614 0
-1.90797 10.3502 0
-1.91517 9.74932 0
-3.231 8.71485 0
-3.0927 6.84795 0
-4.88929 7.5667 0
-6.28005 6.72083 0
-8.31421 5.96747 0
-8.28964 5.24158 0
8.53179 5.60184 0
8.55271 5.80059 0
7.06274 7.38638 0
7.13692 8.90829 0
5.87695 9.60835 0
5.91469 10.6819 0
5.14991 11.2631 0
5.20091 11.8501 0
-1.90903 12.5546 0
-2.46019 12.0836 0
-6.11485 11.8453 0
-5.69035 10.228 0
-6.5488 9.50401 0
-6.46027 8.89384 0
-9.11087 6.99279 0
-9.03246 6.31467 0
9.88595 6.34687 0
10.0334 7.61911 0
9.21996 8.56442 0
10.0512 9.13599 0
9.40652 10.7921 0
9.41963 11.8225 0
5.58081 15.6851 0
4.18043 17.9249 0
-3.23252 18.1063 0
-3.84472 17.2966 0
-9.17167 12.8999 0
-9.09448 11.899 0
-9.68238 11.4151 0
-9.25042 9.85922 0
-10.1419 8.70919 0
-9.95115 7.34934 0
3.88696 -3.50656 0
5.17127 -2.8719 0
6.11846 -2.35091 0
8.52566 -0.450988 0
9.73607 1.20699 0
10.8448 3.79703 0
11.0319 4.29306 0
11.5831 5.62358 0
11.9755 7.81641 0
11.9948 8.87522 0
11.0358 12.685 0
4.74069 19.5694 0
-3.87263 19.9414 0
-10.6986 13.6715 0
-11.3776 11.9775 0
-11.9378 8.91416 0
-11.6317 6.65462 0
-11.0093 5.18614 0
-10.4271 4.06181 0
-9.42859 2.12201 0
-7.49425 -0.355417 0
-5.28606 -1.98435 0
-3.02855 -3.09734 0
0.0975159 -3.94726 0
9.68926 14.9868 0
7.62921 13.7945 0
-7.94744 17.5656 0
-6.5995 15.8957 0
-0.444366 3.88736 0
1.10889 4.04802 0
-2.01962 5.71467 0
-1.46636 4.09634 0
4.86886 5.87178 0
5.11752 6.9142 0
0.413392 10.9536 0
0.259093 9.71223 0
-1.27686 7.71893 0
-2.71588 7.50236 0
6.14207 7.11653 0
5.06176 8.90808 0
4.21253 9.12916 0
3.88533 10.462 0
2.17295 11.5555 0
2.12487 11.4425 0
-2.45709 10.7156 0
-4.33826 9.90897 0
-4.04494 8.93603 0
-4.9001 8.23611 0
1.35878 1.63731 0
-0.162628 0.528614 0
6.68189 3.31192 0
5.73238 1.46859 0
5.36281 3.93598 0
3.36025 4.42794 0
-7.15434 14.2725 0
-5.74871 12.2116 0
3.26157 4.36909 0
1.71197 4.90286 0
-9.16867 9.47222 0
-7.9556 8.33809 0
-0.955534 -1.17379 0
-1.37263 -3.68542 0
0.776967 18.8912 0
0.710709 20.288 0
1.2191 -1.69135 0
1.30467 -0.379449 0
2.57373 8.67173 0
1.41702 7.3882 0
7.6162 12.7752 0
5.2632 11.7849 0
1.97428 18.3047 0
0.660707 12.8029 0
-3.00229 -0.270089 0
-3.7373 -2.78835 0
-4.93765 2.75427 0
-5.75712 1.84962 0
-6.06733 -1.4866 0
-4.9581 0.683196 0
0.462873 7.78039 0
-0.664068 7.20982 0
9.22892 8.15181 0
7.78891 7.03516 0
5.89339 0.416737 0
7.58677 -1.32542 0
1.77602 -4.00534 0
1.76734 -2.10743 0
-6.76127 2.06471 0
-8.32236 0.514093 0
-6.11784 5.52259 0
-7.39404 4.69521 0
7.84007 3.50292 0
10.2537 2.25528 0
-11.7554 10.4083 0
-9.25234 9.8576 0
11.6978 11.0622 0
9.97542 10.4325 0
-3.24321 3.74151 0
-4.09987 2.65625 0
-9.928 3.10629 0
-7.44608 4.215 0
-4.04679 6.78638 0
-4.9393 5.23124 0
-7.18846 8.21918 0
-6.91731 6.98625 0
7.94707 9.32755 0
8.03491 10.1695 0
-0.506903 12.2261 0
-0.304171 11.361 0
8.90997 16.1779 0
7.24357 15.1375 0
5.2225 15.9961 0
1.6657 12.4292 0
7.13441 11.0591 0
8.09164 12.4169 0
-7.5334 10.0389 0
-7.54068 11.2619 0
-1.64776 14.8694 0
0.597396 14.6821 0
-5.74034 16.0036 0
-3.86665 12.5947 0
8.07361 12.5539 0
10.287 14.0163 0
-4.54442 17.4695 0
-5.2418 19.4343 0
-9.89648 15.0749 0
-7.90264 13.8232 0
2.84572 20.12 0
2.62068 18.6073 0
7.13365 14.1287 0
5.72392 13.5872 0
-7.92784 13.5172 0
-6.80701 11.9979 0
0.813321 14.8496 0
2.51241 13.7032 0
-4.55942 11.9031 0
-3.94528 10.4368 0
3.50698 13.8372 0
3.67211 12.0688 0
7.45703 17.7168 0
6.37543 15.9159 0
-2.33296 14.1139 0
-3.25436 14.3146 0
-0.586031 17.4184 0
-0.724672 15.2379 0
-6.0071 13.7384 0
-4.06354 13.5061 0
-9.22426 16.0959 0
-7.26992 15.0462 0
1.82696 16.9276 0
3.97855 15.5843 0
-1.22762 14.7736 0
-0.260979 12.5827 0
-2.05145 18.1732 0
-1.8055 20.2729 0
-0.187739 17.5129 0
0.80041 16.5313 0
-2.21225 16.2127 0
-1.5411 17.5426 0
-5.53395 16.8635 0
-6.95152 18.4105 0
-3.41775 16.2847 0
-3.83448 15.6401 0
-5.43817 14.1124 0
-5.25449 15.4821 0
6.68761 18.3638 0
5.33415 17.093 0
-0.843795 17.6871 0
-0.485539 20.2759 0
5.2278 14.0387 0
3.78266 13.5681 0
3.68055 17.7535 0
3.33007 16.2148 0
2.02146 14.5824 0
2.73047 16.0643 0
-2.11852 15.9896 0
-0.648836 16.4306 0

CELLS 408 1224
2 160 0
2 1 2
2 2 3
2 161 4
2 4 5
2 5 0
2 2 6
2 6 7
2 7 8
2 8 9
2 3 9
2 9 144
2 10 11
2 11 12
2 145 4
2 12 13
2 13 14
2 15 14
2 5 156
2 7 16
2 17 178
2 147 17
2 19 18
2 19 8
2 20 19
2 21 20
2 10 21
2 153 125
2 23 22
2 24 23
2 24 124
2 127 24
2 26 25
2 26 13
2 27 26
2 28 27
2 29 28
2 14 168
2 30 17
2 30 31
2 32 31
2 32 146
2 18 33
2 33 148
2 128 35
2 20 152
2 35 36
2 37 36
2 22 37
2 37 163
2 38 131
2 175 40
2 40 23
2 126 40
2 42 41
2 25 192
2 43 42
2 43 44
2 193 27
2 45 44
2 46 45
2 47 171
2 173 47
2 48 186
2 48 49
2 49 50
2 34 50
2 50 51
2 52 129
2 36 52
2 52 53
2 53 162
2 54 38
2 55 54
2 139 55
2 57 56
2 39 57
2 58 57
2 59 133
2 41 59
2 59 196
2 61 60
2 197 43
2 199 61
2 62 63
2 195 185
2 49 64
2 64 65
2 177 65
2 51 134
2 67 66
2 68 67
2 53 136
2 69 68
2 70 69
2 55 137
2 165 70
2 233 71
2 73 72
2 140 56
2 215 73
2 74 75
2 58 142
2 76 75
2 77 76
2 60 143
2 77 198
2 78 79
2 79 62
2 65 80
2 80 81
2 81 176
2 67 200
2 82 83
2 83 191
2 69 208
2 84 85
2 164 216
2 71 225
2 86 206
2 250 158
2 88 89
2 252 256
2 254 214
2 90 91
2 91 211
2 91 92
2 92 93
2 93 210
2 189 93
2 94 95
2 95 78
2 96 1
2 96 97
2 97 6
2 97 98
2 16 98
2 179 99
2 99 30
2 31 100
2 187 101
2 101 48
2 101 102
2 102 64
2 102 103
2 103 80
2 81 104
2 104 105
2 83 105
2 105 190
2 85 106
2 217 120
2 107 87
2 108 88
2 255 122
2 109 90
2 109 110
2 92 110
2 110 188
2 111 94
2 95 112
2 112 113
2 113 79
2 113 114
2 63 114
2 114 194
2 115 46
2 116 47
2 116 172
2 117 29
2 169 118
2 118 15
2 157 119
2 0 119
2 119 180
2 99 100
2 103 104
2 249 108
2 111 112
2 183 116
2 120 204
2 121 224
2 120 121
2 122 242
2 123 243
2 122 123
2 124 11
2 125 21
2 124 125
2 41 126
2 127 25
2 126 127
2 34 128
2 129 51
2 128 129
2 203 130
2 131 39
2 130 131
2 39 132
2 133 58
2 132 133
2 134 66
2 135 68
2 134 135
2 136 135
2 137 70
2 136 137
2 207 138
2 130 139
2 139 138
2 140 73
2 75 141
2 231 140
2 142 141
2 143 77
2 142 143
2 144 10
2 145 12
2 144 145
2 146 33
2 147 18
2 146 147
2 148 34
2 149 35
2 148 149
2 221 150
2 151 74
2 150 240
2 152 149
2 153 22
2 152 153
2 94 154
2 155 78
2 154 155
2 156 15
2 157 118
2 156 157
2 87 266
2 107 222
2 158 159
2 181 160
2 161 3
2 160 161
2 162 54
2 163 174
2 162 163
2 164 121
2 71 165
2 165 164
2 166 158
2 247 167
2 166 244
2 168 29
2 169 117
2 168 169
2 44 170
2 171 182
2 170 171
2 172 117
2 173 28
2 172 173
2 174 38
2 175 132
2 174 175
2 176 82
2 177 66
2 176 177
2 178 16
2 179 98
2 178 179
2 180 96
2 181 1
2 180 181
2 182 46
2 183 115
2 182 183
2 61 184
2 185 63
2 184 185
2 186 32
2 187 100
2 186 187
2 188 111
2 189 154
2 188 189
2 190 106
2 191 84
2 190 191
2 192 42
2 193 170
2 192 193
2 194 115
2 195 45
2 194 195
2 196 60
2 197 184
2 196 197
2 198 155
2 199 62
2 198 199
2 200 82
2 201 84
2 200 201
2 72 202
2 203 56
2 202 203
2 204 234
2 235 205
2 205 204
2 206 261
2 167 207
2 245 206
2 208 201
2 209 85
2 208 209
2 210 76
2 227 74
2 210 211
2 236 72
2 167 213
2 239 213
2 214 123
2 230 215
2 241 237
2 216 209
2 217 106
2 216 217
2 89 218
2 219 108
2 218 219
2 220 109
2 221 226
2 220 221
2 222 159
2 223 166
2 222 223
2 224 205
2 225 264
2 224 225
2 226 90
2 227 211
2 226 227
2 213 228
2 229 207
2 228 268
2 151 230
2 231 141
2 230 231
2 229 232
2 233 138
2 265 233
2 234 260
2 86 235
2 235 234
2 236 212
2 237 257
2 237 236
2 248 88
2 246 239
2 271 238
2 240 151
2 241 215
2 240 258
2 242 220
2 243 150
2 242 243
2 244 251
2 232 245
2 245 267
2 212 246
2 247 202
2 246 247
2 248 253
2 263 249
2 249 248
2 238 250
2 251 228
2 250 251
2 252 270
2 262 253
2 253 252
2 218 254
2 255 219
2 254 255
2 256 89
2 259 214
2 256 257
2 258 241
2 259 257
2 258 259
2 260 107
2 261 87
2 260 261
2 238 262
2 263 159
2 262 263
2 264 86
2 265 232
2 264 265
2 266 223
2 269 244
2 266 267
2 268 229
2 269 267
2 268 269
2 270 212
2 271 239
2 270 271

CELL_TYPES 408
3
3
3
3
3
3
3
3
3
3
3
3
3
3
3
3
3
3
3
3
3
3
3
3
3
3
3
3
3
3
3
3
3
3
3
3
3
3
3
3
3
3
3
3
3
3
3
3
3
3
3
3
3
3
3
3
3
3
3
3
3
3
3
3
3
3
3
3
3
3
3
3
3
3
3
3
3
3
3
3
3
3
3
3
3
3
3
3
3
3
3
3
3
3
3
3
3
3
3
3
3
3
3
3
3
3
3
3
3
3
3
3
3
3
3
3
3
3
3
3
3
3
3
3
3
3
3
3
3
3
3
3
3
3
3
3
3
3
3
3
3
3
3
3
3
3
3
3
3
3
3
3
3
3
3
3
3
3
3
3
3
3
3
3
3
3
3
3
3
3
3
3
3
3
3
3
3
3
3
3
3
3
3
3
3
3
3
3
3
3
3
3
3
3
3
3
3
3
3
3
3
3
3
3
3
3
3
3
3
3
3
3
3
3
3
3
3
3
3
3
3
3
3
3
3
3
3
3
3
3
3
3
3
3
3
3
3
3
3
3
3
3
3
3
3
3
3
3
3
3
3
3
3
3
3
3
3
3
3
3
3
3
3
3
3
3
3
3
3
3
3
3
3
3
3
3
3
3
3
3
3
3
3
3
3
3
3
3
3
3
3
3
3
3
3
3
3
3
3
3
3
3
3
3
3
3
3
3
3
3
3
3
3
3
3
3
3
3
3
3
3
3
3
3
3
3
3
3
3
3
3
3
3
3
3
3
3
3
3
3
3
3
3
3
3
3
3
3
3
3
3
3
3
3
3
3
3
3
3
3
3
3
3
3
3
3
3
3
3
3
3
3
3
3
3
3
3
3
3
3
3
3
3
3
3
3
3
3
3
3
3
3
3
3
3
3
3
3
3
3
3
3
3
3
3
3
3
3

CELL_DATA 408
SCALARS current_Length float
LOOKUP_TABLE default
0.987024
0.953911
1.39719
1.55286
1.55339
1.50574
0.663797
1.05222
1.59329
1.24067
0.91836
1.28156
1.90059
1.45533
0.292582
0.321127
1.4882
0.95596
0.109238
0.60886
0.568794
0.598926
0.394892
0.693367
1.12086
1.25503
0.848515
1.04617
1.16655
1.88416
0.271666
0.850703
1.63385
0.595538
1.45777
0.90871
0.74885
0.87797
1.12102
1.16464
1.27452
0.805552
2.10045
0.00264025
1.45634
1.52326
1.25254
1.03557
0.800149
0.843994
0.461079
0.622813
1.09498
1.55397
1.52113
1.22795
1.20538
1.19637
1.24718
1.4933
0.876384
0.633362
0.890965
0.715779
0.860954
0.614506
1.26483
2.14155
1.57555
1.58024
0.792781
1.00836
1.47807
1.13367
0.93403
0.600971
1.05497
1.67377
0.755149
1.1128
0.956077
1.6278
0.433735
0.690325
0.726305
0.483027
1.06982
0.19985
1.45173
0.00250093
1.52371
1.44139
0.926075
1.07416
0.960613
1.26414
0.533878
1.54435
0.724946
0.659545
1.49643
1.67201
0.843462
1.12301
0.616556
0.669502
0.992683
0.682637
0.797767
1.44082
1.28076
0.96482
0.912207
1.0088
1.29869
1.27673
1.03046
0.508149
1.81411
0.474412
1.68242
1.01506
1.20765
0.884337
1.00387
1.67936
0.761455
1.61474
1.7264
0.00250606
1.37316
0.912801
1.94535
1.43256
2.35476
1.08102
2.50031
1.28302
2.03195
2.06557
1.65116
2.86592
0.53017
2.822
1.44017
1.84486
1.95214
1.05898
1.96096
2.20705
1.83195
1.13979
1.73731
1.94351
1.30601
1.71083
1.82505
1.78612
1.614
1.80753
1.81846
1.59491
2.27631
1.26616
2.44141
1.07801
2.31304
2.41425
1.8209
2.59946
0.773171
2.59763
1.49328
1.88025
1.67951
2.0528
2.22766
2.09354
2.28017
1.20075
1.42337
0.597758
2.38022
1.94686
1.08214
2.14607
1.24029
1.48957
1.56154
0.610338
0.885286
1.71029
1.60255
1.04432
1.07166
0.825146
1.39353
1.25089
1.48043
1.31738
1.45523
0.959398
1.07467
2.09207
0.877535
1.497
1.37241
1.01029
1.77996
0.122724
1.36805
1.38922
1.51409
1.01619
1.69315
1.10507
0.451803
1.4895
1.88252
1.45737
1.66169
2.07351
0.920872
1.06834
2.0621
0.872814
0.517923
1.26548
0.114899
1.1342
1.63895
1.23668
1.77327
1.66066
0.80213
1.75725
2.54603
0.528457
1.97335
1.39839
0.688261
1.15465
1.31468
1.1292
1.03161
1.72783
1.01933
0.0902319
2.55293
1.33327
0.947642
1.38494
0.775483
1.74502
2.62333
1.2057
1.02693
1.22062
0.926359
0.996536
2.43688
1.64358
0.796686
1.26315
0.412715
0.806652
1.82223
0.880482
1.79097
2.42954
2.16907
1.26892
1.89792
0.97899
1.9517
2.20033
1.20916
1.0491
1.52094
0.44088
1.16914
2.71705
1.50528
0.394362
2.56295
1.75262
0.673066
1.8339
0.981108
0.843502
1.38262
1.10373
0.702936
2.7183
1.14834
1.21401
1.79305
0.776306
1.72894
1.26239
1.48412
1.50634
0.846478
1.44008
1.89571
0.888574
2.11643
1.16599
1.9645
1.10263
1.07224
1.31034
1.26584
1.45495
1.66133
1.12052
0.708786
1.22298
1.61595
1.88019
1.43418
0.865916
0.978862
1.14385
0.138117
1.52746
2.65292
0.72075
1.46006
2.08481
1.61639
0.307024
2.35415
2.14161
0.713725
1.52942
1.01476
0.67079
1.51015
1.38857
1.0392
1.88804
0.273311
1.52969
1.23734
1.22864
0.658026
1.58977
1.00355
1.58462
1.50336
1.0053
0.827447
2.10073
1.01996
1.44694
0.942991
1.18296
0.684538
2.18484
1.5485
0.93246
0.680879
1.22249
0.782351
2.21841
1.10039
1.80965
0.904447
0.430932
0.433133
2.39468
0.811231
1.31997
2.11402
0.409345
1.68173
1.39281
1.45703
0.7121
1.48973
1.16034
1.9928
2.09822
1.09831
0.712782
0.767559
1.50239
1.42878
1.38195
2.28999
1.42236
1.85652
0.372337
1.19631
2.6135
1.68385
0.385219
1.51984
1.36099
1.24962
1.57814
1.00699
0.618178
1.64283
3.32734
0
0

SCALARS edge_force float
LOOKUP_TABLE default
0.5
0.5
0.5
0.5
0.5
0.5
0.5
0.5
0.5
0.5
0.5
0.5
0.5
0.5
0.5
0.5
0.5
0.5
0.5
0.5
0.5
0.5
0.5
0.5
0.5
0.5
0.5
0.5
0.5
0.5
0.5
0.5
0.5
0.5
0.5
0.5
0.5
0.5
0.5
0.5
0.5
0.5
0.5
0.5
0.5
0.5
0.5
0.5
0.5
0.5
0.5
0.5
0.5
0.5
0.5
0.5
0.5
0.5
0.5
0.5
0.5
0.5
0.5
0.5
0.5
0.5
0.5
0.5
0.5
0.5
0.5
0.5
0.5
0.5
0.5
0.5
0.5
0.5
0.5
0.5
0.5
0.5
0.5
0.5
0.5
0.5
0.5
0.5
0.5
0.5
0.5
0.5
0.5
0.5
0.5
0.5
0.5
0.5
0.5
0.5
0.5
0.5
0.5
0.5
0.5
0.5
0.5
0.5
0.5
0.5
0.5
0.5
0.5
0.5
0.5
0.5
0.5
0.5
0.5
0.5
0.5
0.5
0.5
0.5
0.5
0.5
0.5
0.5
0.5
0.5
0.5
0.5
0.5
2
0.5
2
0.5
2
0.5
0.5
2
0.5
2
0.5
2
0.5
0.5
2
0.5
2
0.5
2
0.5
0.5
2
0.5
2
0.5
2
0.5
0.5
2
0.5
2
0.5
2
0.5
0.5
2
0.5
2
0.5
2
0.5
2
2
2
2
2
2
2
0.5
0.5
2
0.5
0.5
0.5
0.5
0.5
0.5
0.5
0.5
0.5
0.5
0.5
0.5
0.5
0.5
0.5
0.5
0.5
0.5
0.5
0.5
0.5
0.5
0.5
0.5
0.5
0.5
0.5
0.5
0.5
0.5
0.5
0.5
0.5
0.5
0.5
0.5
0.5
0.5
0.5
0.5
0.5
0.5
0.5
0.5
0.5
0.5
0.5
0.5
0.5
0.5
0.5
2
0.5
0.5
2
0.5
0.5
0.5
0.5
0.5
0.5
0.5
0.5
0.5
0.5
0.5
0.5
0.5
0.5
2
0.5
0.5
0.5
0.5
2
0.5
0.5
0.5
0.5
0.5
0.5
0.5
0.5
0.5
2
0.5
2
0.5
0.5
0.5
2
0.5
0.5
0.5
0.5
0.5
2
0.5
2
0.5
0.5
2
0.5
0.5
0.5
0.5
0.5
2
0.5
0.5
0.5
0.5
0.5
0.5
0.5
0.5
0.5
0.5
0.5
0.5
0.5
0.5
2
0.5
0.5
0.5
0.5
0.5
0.5
0.5
0.5
0.5
0.5
0.5
0.5
0.5
0.5
0.5
0.5
0.5
0.5
2
0.5
0.5
2
0.5
2
0.5
0.5
2
0.5
0.5
0.5
0.5
0.5
0.5
0.5
0.5
0.5
0.5
0.5
0.5
0.5
0.5
0.5
0.5
0.5
2
0.5
0.5
0.5
0.5
0.5
0.5
0.5
0.5
0.5
0.5
0.5
2
0.5
0.5
0.5
0.5
0.5
0.5
0.5
0.5
0.5
2
0.5
0.5
0.5
0.5
0.5
0.5
0.5
0.5
2
0.5
0.5
0.5
0.5
0.5
0.5
0.5
2
0.5
0.5
0.5
2
0.5
0.5
0.5
0.5
0.5
0.5
0.5
0.5
0.5
0.5
0
0
0
