# vtk DataFile Version 3.0
2D-vertex
ASCII
DATASET UNSTRUCTURED_GRID

POINTS 228 float
0.337367 -2.31429 0
3.15078 -1.93191 0
3.46299 -1.07187 0
2.48024 -0.132436 0
-0.0913574 -0.0237002 0
-0.828438 -1.32895 0
4.19549 -0.978333 0
4.70578 -0.0429581 0
3.80334 1.1656 0
2.57536 0.725362 0
1.32806 1.70823 0
-0.545576 2.3013 0
-1.34689 1.13612 0
-1.70302 1.07451 0
-2.20825 -0.207979 0
-1.77185 -1.03761 0
5.31913 -0.122304 0
6.24037 1.00231 0
4.36952 1.98058 0
3.96356 1.84064 0
3.19205 2.55382 0
1.86591 2.37552 0
1.2287 5.48041 0
0.0462625 5.38619 0
-0.632414 3.68594 0
-2.0714 3.1406 0
-2.15027 1.56904 0
-3.6174 1.38885 0
-4.05997 0.713551 0
-3.82117 0.000608007 0
7.37229 1.19673 0
8.00416 2.32312 0
7.52213 3.45094 0
5.44547 3.82679 0
6.03085 4.68515 0
3.49923 5.1626 0
2.692 6.07713 0
1.62141 6.09624 0
0.481451 9.03452 0
-0.951248 9.06349 0
-0.787175 6.16725 0
-2.59157 5.57386 0
-3.58521 4.53238 0
-4.75992 4.80607 0
-5.46288 3.97527 0
-6.90813 4.01633 0
-7.28099 3.28361 0
-5.79203 1.33888 0
8.02053 4.65 0
7.64575 5.29142 0
7.16391 5.38096 0
5.98526 7.16901 0
3.57849 7.35983 0
3.29156 8.11585 0
1.7248 9.28303 0
2.24641 10.3474 0
-1.66105 10.6978 0
-1.72712 9.63435 0
-3.02212 8.83571 0
-3.01828 6.6995 0
-4.56622 7.63784 0
-5.98157 7.06677 0
-7.99656 6.60906 0
-8.10519 5.79667 0
8.43046 6.06775 0
8.40646 6.41909 0
6.8418 7.66378 0
6.50684 9.28852 0
5.2342 9.61535 0
4.93357 10.8847 0
4.00929 11.2102 0
3.03565 12.2769 0
-1.52123 12.8915 0
-2.32452 12.5946 0
-4.2743 12.0283 0
-4.05962 10.8732 0
-5.54585 10.0193 0
-5.58608 9.3155 0
-8.53795 7.83682 0
-8.6046 7.05727 0
9.55289 7.15269 0
9.42612 8.61668 0
8.50809 9.47783 0
9.07474 10.145 0
7.94715 11.7362 0
7.59006 12.8897 0
2.18209 14.5964 0
1.98399 15.2909 0
-1.45679 15.8986 0
-1.89586 15.1578 0
-7.07414 13.8761 0
-7.35413 12.6972 0
-8.02805 12.3952 0
-7.98295 10.74 0
-9.12246 9.77048 0
-9.23347 8.32424 0
4.04457 -3.58048 0
5.37482 -2.8715 0
6.38014 -2.25601 0
8.76847 -0.097372 0
9.86144 1.73735 0
10.7057 4.55242 0
10.8712 5.29752 0
11.2057 6.81399 0
11.1455 9.16131 0
10.868 10.3977 0
8.65216 14.0407 0
3.24526 17.3397 0
-2.11642 17.8169 0
-8.03629 14.9178 0
-9.37666 13.3309 0
-10.7666 10.3401 0
-10.9661 8.01499 0
-10.6317 6.37225 0
-10.2179 5.042 0
-9.40603 2.74787 0
-7.63281 -0.0320599 0
-5.41874 -1.89686 0
-3.0841 -3.15854 0
0.129721 -4.07819 0
6.14872 15.9529 0
5.0199 14.2399 0
-4.89729 16.8997 0
-4.17319 15.2298 0
-0.451073 3.46228 0
1.15595 3.64463 0
-2.0044 5.40446 0
-1.51999 3.70736 0
4.91609 5.71094 0
5.018 6.77716 0
0.322611 10.8467 0
0.0498585 9.42197 0
-1.33735 7.42764 0
-2.58484 7.33446 0
5.98505 7.17151 0
4.62151 8.80667 0
3.84793 8.86927 0
3.20086 10.3193 0
1.8649 11.9151 0
1.61348 11.1937 0
-2.47982 11.2418 0
-3.57125 10.6286 0
-3.51188 9.07363 0
-4.42862 8.56608 0
1.40574 1.34243 0
-0.123864 0.184979 0
6.72091 3.39922 0
5.95268 1.38453 0
5.44539 3.82698 0
3.48378 4.14584 0
-4.68529 14.4977 0
-3.71817 12.804 0
3.30827 4.02549 0
1.72109 4.49207 0
-8.01746 10.2917 0
-7.09762 8.93704 0
-0.964779 -1.38589 0
-1.40906 -3.78799 0
-0.256215 16.0491 0
-0.026875 18.0076 0
1.30013 -1.89956 0
1.36966 -0.659086 0
2.34714 8.21571 0
1.29717 6.92194 0
5.41333 13.318 0
3.90895 11.7945 0
0.451163 15.3784 0
0.809537 13.1374 0
-3.06657 -0.413742 0
-3.87471 -2.78499 0
-5.02432 2.75424 0
-5.83924 1.99161 0
-6.25456 -1.29562 0
-5.05428 0.688535 0
0.296578 7.31815 0
-0.694379 6.83923 0
8.6525 8.92337 0
7.43496 7.52023 0
6.11082 0.440081 0
7.82059 -1.11844 0
1.8912 -4.1312 0
1.85306 -2.30572 0
-6.82829 2.29715 0
-8.44407 0.982698 0
-5.99904 5.73343 0
-7.28665 5.12 0
7.90533 3.82112 0
10.2908 2.9182 0
-10.2106 11.8115 0
-8.00782 10.724 0
9.9329 12.5412 0
8.58808 11.5507 0
-3.30008 3.52986 0
-4.16243 2.58037 0
-9.81971 3.89117 0
-7.40444 4.61947 0
-3.84013 6.73272 0
-4.90946 5.31198 0
-6.51245 8.72727 0
-6.45473 7.36526 0
7.1268 9.86537 0
6.94254 10.8533 0
-0.315442 12.0807 0
-0.335207 11.3467 0
4.40688 16.8672 0
3.88039 15.6008 0
2.1796 14.5966 0
1.0547 13.1199 0
5.75948 11.45 0
6.17061 12.9831 0
-6.21421 10.5703 0
-5.99711 11.7225 0
-1.19044 14.0972 0
0.121998 14.2885 0
-2.87037 14.9831 0
-2.78108 12.9878 0
6.01032 13.2714 0
7.3217 15.1452 0
-2.65571 15.2311 0
-3.43771 17.4401 0
-6.45018 16.1091 0
-5.50239 14.5241 0
1.37682 17.8557 0
1.11244 15.6641 0
4.71193 14.2776 0
3.1531 13.1554 0
-5.81954 13.9911 0
-5.18262 12.2842 0

CELLS 342 1026
2 160 0
2 1 2
2 2 3
2 161 4
2 4 5
2 5 0
2 2 6
2 6 7
2 7 8
2 8 9
2 3 9
2 9 144
2 10 11
2 11 12
2 145 4
2 12 13
2 13 14
2 15 14
2 5 156
2 7 16
2 17 178
2 147 17
2 19 18
2 19 8
2 20 19
2 21 20
2 10 21
2 153 125
2 23 22
2 24 23
2 24 124
2 127 24
2 26 25
2 26 13
2 27 26
2 28 27
2 29 28
2 14 168
2 30 17
2 30 31
2 32 31
2 32 146
2 18 33
2 33 148
2 128 35
2 20 152
2 35 36
2 37 36
2 22 37
2 37 163
2 38 131
2 175 40
2 40 23
2 126 40
2 42 41
2 25 192
2 43 42
2 43 44
2 193 27
2 45 44
2 46 45
2 47 171
2 173 47
2 48 186
2 48 49
2 49 50
2 34 50
2 50 51
2 52 129
2 36 52
2 52 53
2 53 162
2 54 38
2 55 54
2 139 55
2 57 56
2 39 57
2 58 57
2 59 133
2 41 59
2 59 196
2 61 60
2 197 43
2 199 61
2 62 63
2 195 185
2 49 64
2 64 65
2 177 65
2 51 134
2 67 66
2 68 67
2 53 136
2 69 68
2 70 69
2 55 137
2 165 70
2 138 71
2 73 72
2 140 56
2 215 73
2 75 74
2 58 142
2 76 75
2 77 76
2 60 143
2 77 198
2 78 79
2 79 62
2 65 80
2 80 81
2 81 176
2 67 200
2 82 83
2 83 191
2 69 208
2 84 85
2 164 216
2 225 71
2 86 206
2 158 88
2 89 88
2 212 89
2 214 218
2 90 91
2 91 211
2 91 92
2 92 93
2 93 210
2 189 93
2 94 95
2 95 78
2 96 1
2 96 97
2 97 6
2 97 98
2 16 98
2 179 99
2 99 30
2 31 100
2 187 101
2 101 48
2 101 102
2 102 64
2 102 103
2 103 80
2 81 104
2 104 105
2 83 105
2 105 190
2 85 106
2 217 120
2 87 107
2 88 108
2 219 122
2 109 90
2 109 110
2 92 110
2 110 188
2 111 94
2 95 112
2 112 113
2 113 79
2 113 114
2 63 114
2 114 194
2 115 46
2 116 47
2 116 172
2 117 29
2 169 118
2 118 15
2 157 119
2 0 119
2 119 180
2 99 100
2 103 104
2 159 108
2 111 112
2 183 116
2 120 204
2 121 224
2 120 121
2 122 220
2 150 123
2 123 122
2 124 11
2 125 21
2 124 125
2 41 126
2 127 25
2 126 127
2 34 128
2 129 51
2 128 129
2 203 130
2 131 39
2 130 131
2 39 132
2 133 58
2 132 133
2 134 66
2 135 68
2 134 135
2 136 135
2 137 70
2 136 137
2 207 138
2 130 139
2 139 138
2 73 140
2 141 75
2 140 141
2 142 141
2 143 77
2 142 143
2 144 10
2 145 12
2 144 145
2 146 33
2 147 18
2 146 147
2 148 34
2 149 35
2 148 149
2 150 221
2 74 151
2 151 150
2 152 149
2 153 22
2 152 153
2 94 154
2 155 78
2 154 155
2 156 15
2 157 118
2 156 157
2 223 87
2 107 222
2 159 158
2 181 160
2 161 3
2 160 161
2 162 54
2 163 174
2 162 163
2 164 121
2 71 165
2 165 164
2 158 166
2 202 167
2 213 166
2 168 29
2 169 117
2 168 169
2 44 170
2 171 182
2 170 171
2 172 117
2 173 28
2 172 173
2 174 38
2 175 132
2 174 175
2 176 82
2 177 66
2 176 177
2 178 16
2 179 98
2 178 179
2 180 96
2 181 1
2 180 181
2 182 46
2 183 115
2 182 183
2 61 184
2 185 63
2 184 185
2 186 32
2 187 100
2 186 187
2 188 111
2 189 154
2 188 189
2 190 106
2 191 84
2 190 191
2 192 42
2 193 170
2 192 193
2 194 115
2 195 45
2 194 195
2 196 60
2 197 184
2 196 197
2 198 155
2 199 62
2 198 199
2 200 82
2 201 84
2 200 201
2 72 202
2 203 56
2 202 203
2 204 107
2 205 86
2 204 205
2 206 87
2 207 167
2 206 207
2 208 201
2 209 85
2 208 209
2 210 76
2 227 74
2 210 211
2 72 212
2 213 167
2 212 213
2 123 214
2 215 151
2 214 215
2 216 209
2 217 106
2 216 217
2 218 89
2 219 108
2 218 219
2 220 109
2 221 226
2 220 221
2 222 159
2 223 166
2 222 223
2 224 205
2 225 86
2 224 225
2 226 90
2 227 211
2 226 227

CELL_TYPES 342
3
3
3
3
3
3
3
3
3
3
3
3
3
3
3
3
3
3
3
3
3
3
3
3
3
3
3
3
3
3
3
3
3
3
3
3
3
3
3
3
3
3
3
3
3
3
3
3
3
3
3
3
3
3
3
3
3
3
3
3
3
3
3
3
3
3
3
3
3
3
3
3
3
3
3
3
3
3
3
3
3
3
3
3
3
3
3
3
3
3
3
3
3
3
3
3
3
3
3
3
3
3
3
3
3
3
3
3
3
3
3
3
3
3
3
3
3
3
3
3
3
3
3
3
3
3
3
3
3
3
3
3
3
3
3
3
3
3
3
3
3
3
3
3
3
3
3
3
3
3
3
3
3
3
3
3
3
3
3
3
3
3
3
3
3
3
3
3
3
3
3
3
3
3
3
3
3
3
3
3
3
3
3
3
3
3
3
3
3
3
3
3
3
3
3
3
3
3
3
3
3
3
3
3
3
3
3
3
3
3
3
3
3
3
3
3
3
3
3
3
3
3
3
3
3
3
3
3
3
3
3
3
3
3
3
3
3
3
3
3
3
3
3
3
3
3
3
3
3
3
3
3
3
3
3
3
3
3
3
3
3
3
3
3
3
3
3
3
3
3
3
3
3
3
3
3
3
3
3
3
3
3
3
3
3
3
3
3
3
3
3
3
3
3
3
3
3
3
3
3
3
3
3
3
3
3
3
3
3
3
3
3
3
3
3
3
3
3
3
3
3
3
3
3
3
3
3
3
3
3
3
3
3
3
3
3
3
3
3
3
3
3

CELL_DATA 342
SCALARS current_Length float
LOOKUP_TABLE default
1.04829
0.914959
1.35953
1.5932
1.49899
1.52643
0.73844
1.06552
1.50832
1.3045
0.863056
1.32242
1.96526
1.41412
0.211196
0.361424
1.37842
0.937405
0.147752
0.618462
0.576964
0.478389
0.429408
0.69379
1.05064
1.33807
0.857069
1.0186
1.18618
1.83069
0.287936
0.887836
1.57354
0.666772
1.47816
0.807399
0.751873
0.882646
1.14849
1.29152
1.22651
0.802888
2.13685
0.000210624
1.51927
1.47626
1.21982
1.07077
0.730391
0.887078
0.579988
0.678364
1.14222
1.43648
1.43944
1.28886
1.20618
1.08829
1.31026
1.44583
0.822126
0.654427
0.98348
0.836844
0.742888
0.490096
1.32965
2.14157
1.55297
1.55923
0.808637
0.949681
1.26794
1.18531
1.05682
1.06547
0.96325
1.52147
0.768796
1.20381
0.82252
1.52622
0.527542
0.55944
0.819619
0.514203
1.10383
0.352162
1.46844
0.00250394
1.65891
1.31394
0.936591
1.30446
0.979913
0.954863
0.59286
1.22538
0.856391
0.98305
0.602542
1.17485
0.544482
1.71408
0.704925
0.938377
1.09735
0.782391
0.755378
1.36106
1.46947
0.832191
0.846817
0.875319
1.48754
1.00087
1.20755
0.598804
0.886401
0.00250394
1.20996
0.861167
1.27379
0.327998
1.21164
1.67083
0.738499
1.65578
1.77687
0.0295894
1.45049
0.849309
1.87527
1.50739
2.23045
1.17877
2.38295
1.39322
1.90368
1.94746
1.68605
2.6869
0.76326
2.55936
1.55292
1.68713
1.80362
1.26716
1.81097
2.3386
1.56611
1.42415
2.4059
2.02855
1.55642
1.41808
2.07724
1.64142
1.73318
1.73999
1.75998
1.67642
2.13971
1.39312
2.24346
1.21777
2.19154
2.2952
1.8698
2.48045
0.874416
2.49407
1.56591
1.77608
1.76228
2.1356
2.34809
2.09823
2.33364
1.29919
1.96722
0.310262
2.05144
1.74255
0.893465
1.82009
1.16482
1.4542
1.61733
0.611118
0.790737
1.76488
1.51491
1.04362
1.07108
0.82622
1.06335
1.45065
1.6808
1.56364
1.25097
0.988111
1.01457
2.12908
0.776111
1.20298
1.58788
1.45193
1.33669
0.763888
1.36165
0.54618
1.25188
1.55615
1.37889
1.04787
0.373952
1.54934
1.91817
1.34519
1.69165
2.15619
1.03885
1.01688
1.98736
0.817526
0.954459
1.95038
0.212807
1.10421
1.65434
1.22174
1.81246
1.63741
0.879009
1.7894
2.44284
0.948089
1.93838
1.97193
0.686068
1.22913
1.24242
1.23551
1.07619
1.66621
1.00236
0.997663
2.1411
0.97474
1.54341
1.13855
0.86087
1.78123
2.50517
1.29741
1.03517
1.11611
1.02961
0.994626
2.31895
1.7263
0.871566
1.10062
0.572959
0.610279
1.85774
0.971109
1.83548
2.3135
2.22268
1.35048
1.82588
1.08538
2.01027
2.08292
1.33345
1.06202
1.42627
0.532809
1.25649
2.55064
1.57299
0.432452
2.45664
1.97197
0.667242
1.67024
1.04227
0.87925
1.28265
1.21584
0.781094
2.52269
1.16036
1.16824
1.7782
0.621635
1.71729
1.36323
1.43463
1.33744
1.00497
1.45301
1.47612
0.734301
1.25405
1.9731
1.37141
0.721252
0.245783
1.85638
1.32505
1.42252
1.58721
0.866216
0.943686
1.17244
1.25026
1.34085
1.32631
1.32596
0.954946
1.99736
0.329917
1.72919
2.28707
0.763375
1.37396
2.34332
1.98366
0.620282
1.84673
1.41189
0.72032
2.20751
1.56279
1.73759
1.92076
1.25986
0.989394
1.82184

SCALARS edge_force float
LOOKUP_TABLE default
0.5
0.5
0.5
0.5
0.5
0.5
0.5
0.5
0.5
0.5
0.5
0.5
0.5
0.5
0.5
0.5
0.5
0.5
0.5
0.5
0.5
0.5
0.5
0.5
0.5
0.5
0.5
0.5
0.5
0.5
0.5
0.5
0.5
0.5
0.5
0.5
0.5
0.5
0.5
0.5
0.5
0.5
0.5
0.5
0.5
0.5
0.5
0.5
0.5
0.5
0.5
0.5
0.5
0.5
0.5
0.5
0.5
0.5
0.5
0.5
0.5
0.5
0.5
0.5
0.5
0.5
0.5
0.5
0.5
0.5
0.5
0.5
0.5
0.5
0.5
0.5
0.5
0.5
0.5
0.5
0.5
0.5
0.5
0.5
0.5
0.5
0.5
0.5
0.5
0.5
0.5
0.5
0.5
0.5
0.5
0.5
0.5
0.5
0.5
0.5
0.5
0.5
0.5
0.5
0.5
0.5
0.5
0.5
0.5
0.5
0.5
0.5
0.5
0.5
0.5
0.5
0.5
0.5
0.5
0.5
0.5
0.5
0.5
0.5
0.5
0.5
0.5
0.5
0.5
0.5
0.5
0.5
0.5
2
0.5
2
0.5
2
0.5
0.5
2
0.5
2
0.5
2
0.5
0.5
2
0.5
2
0.5
2
0.5
0.5
2
0.5
2
0.5
2
0.5
0.5
2
0.5
2
0.5
2
0.5
0.5
2
0.5
2
0.5
2
0.5
2
2
2
2
2
2
2
0.5
0.5
2
0.5
0.5
0.5
0.5
0.5
0.5
0.5
0.5
0.5
0.5
0.5
0.5
0.5
0.5
0.5
0.5
0.5
0.5
0.5
0.5
0.5
0.5
0.5
0.5
0.5
0.5
0.5
0.5
0.5
0.5
0.5
0.5
0.5
0.5
0.5
0.5
0.5
0.5
0.5
0.5
0.5
0.5
0.5
0.5
0.5
0.5
0.5
0.5
0.5
0.5
0.5
2
0.5
0.5
2
0.5
0.5
0.5
0.5
0.5
0.5
0.5
0.5
0.5
0.5
0.5
0.5
0.5
0.5
2
0.5
0.5
0.5
0.5
2
0.5
0.5
0.5
0.5
0.5
0.5
0.5
0.5
0.5
2
0.5
2
0.5
0.5
0.5
2
0.5
0.5
0.5
0.5
0.5
2
0.5
2
0.5
0.5
2
0.5
0.5
0.5
0.5
0.5
2
0.5
0.5
0.5
0.5
0.5
0.5
0.5
0.5
0.5
0.5
0.5
0.5
0.5
0.5
2
0.5
0.5
0.5
0.5
0.5
0.5
0.5
0.5
0.5
0.5
0.5
0.5
0.5
0.5
0.5
0.5
0.5
0.5
2
0.5
0.5
2
0.5
2
0.5
0.5
2
0.5
0.5
0.5
0.5
0.5
0.5
0.5
0.5
