# vtk DataFile Version 2.0
2D-vertex
ASCII
DATASET UNSTRUCTURED_GRID
POINTS 616 float
0.196517 -3.01879 0
2.64709 -2.89303 0
3.0681 -1.9569 0
2.07807 -0.853781 0
-0.185674 -0.634108 0
-0.949494 -2.10198 0
3.59655 -1.94119 0
4.19917 -1.10857 0
3.32198 0.438412 0
2.26057 0.159728 0
1.12691 1.45188 0
-0.553071 1.9853 0
-1.35599 0.734748 0
-1.51817 0.699496 0
-2.08013 -0.951111 0
-1.59452 -1.8521 0
4.76821 -1.28766 0
5.61119 -0.439398 0
3.83447 1.16101 0
3.55415 1.10259 0
2.71422 2.09124 0
1.63591 2.04157 0
1.1118 5.63645 0
0.203539 5.63547 0
-0.646997 3.80751 0
-1.90205 2.95207 0
-1.86762 1.05936 0
-3.17093 0.799682 0
-3.70671 -0.218352 0
-3.42204 -0.937029 0
6.68122 -0.468285 0
7.32914 0.230072 0
7.20253 1.54954 0
5.02816 2.79732 0
5.52013 3.35938 0
3.21737 4.75894 0
2.51502 6.03651 0
1.59247 6.22748 0
0.698059 9.30195 0
-0.944685 9.378 0
-0.65309 6.47018 0
-2.22567 5.58264 0
-3.28547 4.09208 0
-4.26196 4.14525 0
-5.01596 2.76535 0
-6.43612 2.48061 0
-6.74043 1.42118 0
-5.25004 0.0447016 0
7.64971 2.15684 0
7.3476 3.20942 0
6.61591 3.65562 0
5.97503 5.72619 0
3.65441 6.98908 0
3.61048 7.8043 0
2.17907 9.39471 0
2.73444 10.0915 0
-1.95038 10.7002 0
-1.88501 9.90691 0
-3.10619 8.65501 0
-2.80515 6.56362 0
-4.47785 6.9185 0
-5.85887 5.63809 0
-7.80186 4.18964 0
-7.66404 3.65506 0
8.29107 3.58603 0
8.29113 3.58853 0
6.90793 5.67147 0
7.38462 6.85759 0
6.19667 8.15273 0
6.43511 8.81926 0
5.75019 9.81858 0
5.55972 10.22 0
-2.73858 12.9598 0
-2.94627 12.725 0
-6.25265 10.0783 0
-5.5673 9.24426 0
-6.27839 7.93964 0
-6.18544 7.75147 0
-8.78902 4.7064 0
-8.64031 4.35205 0
9.84105 3.82901 0
10.1996 4.76982 0
9.44504 5.78942 0
10.6353 6.16247 0
10.415 7.6961 0
10.6464 8.4158 0
10.0807 13.1558 0
11.0858 15.3642 0
-9.97049 15.3533 0
-9.94221 15.2478 0
-10.2366 9.31512 0
-9.92958 8.77397 0
-10.2632 8.15265 0
-9.51273 7.04478 0
-10.309 5.79696 0
-9.84974 4.81657 0
3.52006 -4.77493 0
4.7337 -4.25678 0
5.57487 -3.87427 0
7.96308 -2.34316 0
9.29302 -0.943456 0
10.69 1.34828 0
10.7831 1.50587 0
11.5177 2.55112 0
12.3724 4.45057 0
12.6106 5.22329 0
12.9352 8.73926 0
13.603 15.7594 0
-13.3688 15.8451 0
-12.8107 9.2618 0
-12.7164 7.97768 0
-12.3273 5.43839 0
-11.4496 3.50249 0
-10.5919 2.40724 0
-9.99173 1.6889 0
-9.09816 0.37306 0
-7.18858 -1.76988 0
-5.13685 -3.18453 0
-3.05919 -4.20098 0
-0.0773088 -5.06527 0
12.8463 10.3764 0
8.92569 10.5509 0
-13.1023 11.8294 0
-10.3057 12.5903 0
-0.409514 3.47628 0
0.911065 3.54984 0
-1.9206 5.53832 0
-1.21767 3.81023 0
4.504 4.92513 0
4.93237 5.83667 0
0.393904 10.8209 0
0.170671 9.81462 0
-1.1759 7.78643 0
-2.40889 7.50745 0
5.97419 5.72853 0
5.22139 7.69317 0
4.25294 8.21895 0
4.27942 9.48841 0
2.29352 11.014 0
2.2914 11.0126 0
-2.56633 11.004 0
-4.10036 9.40648 0
-3.65424 8.68559 0
-4.59565 7.49654 0
1.23014 0.812848 0
-0.241947 -0.153904 0
6.38328 1.81843 0
5.25062 0.305512 0
5.02617 2.79883 0
3.01945 3.65378 0
-9.1423 10.909 0
-6.06605 10.7299 0
3.01695 3.65383 0
1.58309 4.36485 0
-9.51114 6.98764 0
-8.09082 6.37246 0
-0.980391 -2.11704 0
-1.44339 -4.80058 0
8.74026 34.0623 0
9.88487 35.6848 0
1.01317 -2.6928 0
1.15287 -1.23947 0
2.56685 8.22038 0
1.3649 7.19656 0
8.73361 10.0617 0
5.75083 9.82101 0
9.70571 21.1102 0
0.219937 12.5967 0
-2.87113 -1.20023 0
-3.61939 -3.95463 0
-4.45783 1.83765 0
-5.36523 0.668088 0
-5.77103 -2.80124 0
-4.66909 -0.35517 0
0.404617 7.70449 0
-0.55383 7.2734 0
9.40773 5.64313 0
7.7785 4.90329 0
5.41207 -0.966257 0
7.08225 -3.00845 0
1.47051 -5.16539 0
1.54862 -3.13647 0
-6.31579 0.799656 0
-7.9319 -1.07339 0
-5.47342 4.54074 0
-6.80085 3.32017 0
7.47258 1.67391 0
9.8887 -0.0819792 0
-12.5819 6.81621 0
-9.5282 7.01908 0
12.9808 7.25256 0
10.8814 7.16618 0
-2.87666 3.15308 0
-3.80221 1.81747 0
-9.57635 1.12338 0
-6.79287 2.75403 0
-3.65342 6.38322 0
-4.4264 4.4462 0
-6.92399 6.55076 0
-6.50414 5.73773 0
8.39217 6.99645 0
8.62864 7.49627 0
-0.837142 12.4677 0
-0.685146 11.5495 0
12.8507 10.3854 0
10.3234 11.7193 0
10.258 14.1088 0
2.08266 11.4207 0
8.08564 8.72635 0
9.39358 9.45246 0
-7.44708 8.05215 0
-7.79229 8.8273 0
-2.33942 14.6848 0
0.916848 13.8192 0
-10.2238 13.1189 0
-4.25606 12.6293 0
9.3925 9.45474 0
12.8508 9.82176 0
-10.9877 14.3689 0
-13.4424 14.8209 0
-12.8686 10.2731 0
-9.38643 10.5022 0
13.1152 18.5481 0
10.5567 17.0274 0
8.60551 10.9995 0
6.49238 11.1885 0
-9.38638 10.4996 0
-7.47849 9.76108 0
2.52565 14.3369 0
4.31829 12.7955 0
-4.59118 11.1564 0
-3.77554 10.4126 0
5.09906 12.5608 0
4.16264 11.0659 0
13.2438 12.107 0
10.557 12.2978 0
-2.97102 14.3008 0
-4.77962 13.5891 0
-10.6922 29.3926 0
0.0876836 15.2855 0
-6.69786 11.3358 0
-4.67366 12.9255 0
-12.949 10.9987 0
-9.63061 11.56 0
6.49428 16.4935 0
8.51226 14.888 0
-1.02496 14.0916 0
-0.633718 12.6816 0
-10.7297 18.7402 0
-13.5746 18.3125 0
5.46218 35.968 0
2.46867 15.3087 0
-3.2188 16.7243 0
-10.5912 19.1515 0
-10.9539 13.6181 0
-13.3269 12.9113 0
-6.86955 15.0685 0
-6.34494 13.8871 0
-6.57666 11.9817 0
-7.4658 12.9832 0
13.5197 13.9168 0
11.0244 14.652 0
-11.2042 20.5866 0
-13.7403 21.3069 0
6.27406 12.2344 0
5.10061 12.5588 0
10.4691 16.0155 0
8.57711 15.5786 0
4.14919 13.8085 0
6.97694 16.053 0
-2.13929 15.8774 0
-0.447115 16.1993 0
13.9107 23.0898 0
11.4515 23.2216 0
0.407016 15.2238 0
1.45998 15.9853 0
11.5531 25.3473 0
4.2711 15.9287 0
13.3672 13.0044 0
10.3965 13.5488 0
-8.69417 14.667 0
-8.76274 13.7869 0
-9.53353 11.8673 0
-7.47857 12.6283 0
-10.3247 18.2265 0
-6.53671 16.6635 0
3.7602 37.0633 0
3.82825 38.8326 0
1.88931 13.688 0
2.64124 12.2065 0
-4.08568 15.9072 0
-4.07735 14.9428 0
-13.4546 17.3082 0
-10.5952 17.6154 0
-0.0146561 17.5286 0
-0.243607 17.3946 0
7.99235 13.235 0
7.5867 14.0755 0
8.86991 11.5536 0
7.8333 12.9031 0
-11.3068 19.8561 0
-13.7176 19.4193 0
-2.68227 16.6782 0
-1.72028 17.9575 0
1.72869 16.9519 0
3.65594 16.966 0
6.56474 14.2115 0
6.34574 14.6641 0
-7.79307 18.1735 0
-7.58251 18.481 0
-9.49463 15.9443 0
-6.7587 16.0083 0
4.23613 15.8493 0
4.92308 14.7323 0
-10.5021 22.4525 0
-3.96427 18.1153 0
14.0378 24.5728 0
12.0656 24.5841 0
-13.046 29.9545 0
-11.453 29.0454 0
9.02681 17.4879 0
7.99823 16.2367 0
13.0802 19.7946 0
10.0052 20.3019 0
4.52358 18.2049 0
6.43844 19.0805 0
1.54772 19.2152 0
3.86233 18.6203 0
-0.612735 24.9692 0
-3.16993 23.9463 0
-3.05384 22.1805 0
-4.61616 19.951 0
-6.51646 15.6379 0
-4.26543 14.8523 0
-9.86153 21.0578 0
-8.48405 19.6683 0
7.6896 23.9633 0
7.71149 21.0066 0
-13.3698 16.3556 0
-9.87445 16.5876 0
-9.85723 16.6243 0
-7.62823 17.4263 0
-0.0200127 19.3975 0
0.221847 19.0999 0
9.36317 32.9185 0
2.34557 22.2524 0
13.008 31.8165 0
11.3637 31.0257 0
-14.1039 24.1552 0
-11.7449 23.9117 0
-5.6429 16.9389 0
-5.39405 17.9081 0
8.5879 18.1105 0
7.38332 17.9459 0
1.62086 17.1158 0
2.18192 18.1817 0
10.7493 16.5663 0
13.5085 16.772 0
12.9926 19.0175 0
9.0259 17.742 0
-11.0747 24.6421 0
-4.58396 20.1056 0
-2.09088 18.8495 0
-3.62667 18.836 0
3.95774 22.8582 0
4.62876 22.3195 0
-6.04918 18.6272 0
-5.812 19.5567 0
4.54226 17.8712 0
6.51441 16.9807 0
-1.78325 21.867 0
-0.175788 23.0559 0
2.64011 28.3954 0
8.30146 31.6434 0
-3.9244 36.0321 0
-4.41075 37.8471 0
0.213507 36.477 0
-2.07819 24.7598 0
-13.9199 22.2472 0
-11.6213 23.0763 0
-1.76025 19.336 0
-3.58909 20.5775 0
-7.45697 21.5477 0
-5.91348 21.4958 0
10.355 29.1284 0
8.58785 30.601 0
5.45214 20.8915 0
7.11517 21.5327 0
11.3717 23.3461 0
8.73569 23.1527 0
13.4758 21.294 0
11.206 22.4587 0
-11.4824 27.7458 0
-3.65181 21.7495 0
13.5854 29.7062 0
11.5006 29.8051 0
2.67273 20.3546 0
3.94808 19.6177 0
-14.0664 26.3887 0
-11.9617 26.492 0
-1.11315 26.907 0
4.13725 24.0385 0
0.423793 20.5556 0
2.16255 21.069 0
-8.4637 19.7498 0
-7.10882 20.4095 0
9.16073 19.2619 0
7.54347 19.8459 0
-1.38481 21.0228 0
-2.0867 20.0807 0
12.9911 19.0275 0
9.16214 19.2599 0
-2.2532 24.295 0
-1.15182 22.9298 0
-5.72987 21.9854 0
-4.68088 22.3432 0
-4.02288 24.3513 0
-4.73179 23.7773 0
-13.7424 21.3167 0
-10.5255 22.1366 0
5.44866 24.4161 0
6.28108 23.5298 0
0.864215 29.7883 0
1.58872 36.5125 0
-8.05867 22.6975 0
-7.47188 23.6692 0
0.75044 36.8713 0
0.564945 38.8416 0
-7.75855 30.073 0
-5.58632 30.9681 0
10.0572 21.8757 0
8.70507 22.6359 0
14.0434 26.0581 0
11.8645 25.9861 0
6.13168 22.8645 0
7.18922 21.9671 0
2.67259 20.7166 0
4.52827 21.5984 0
3.52586 24.4662 0
3.87025 28.6754 0
5.37058 20.268 0
6.49334 19.3862 0
1.86353 22.668 0
2.07021 23.7974 0
13.2361 20.5219 0
10.1039 21.4973 0
-2.0404 34.4107 0
-2.04288 32.2245 0
-9.91279 31.6932 0
-11.1114 32.8029 0
0.00709699 21.0695 0
0.472328 22.2984 0
-6.89109 23.6653 0
-6.40256 24.3049 0
-9.74826 21.4933 0
-7.45709 21.5451 0
8.04378 26.7484 0
9.45626 25.3422 0
-13.7019 28.4106 0
-11.7834 27.58 0
-6.62756 25.2457 0
-6.16758 26.9129 0
3.16544 33.1165 0
6.74447 32.01 0
-7.57327 32.7139 0
-6.82969 31.2173 0
7.39246 27.6089 0
5.05345 27.6911 0
2.77564 28.1456 0
1.57108 25.8902 0
-3.82998 26.2129 0
-3.70021 26.257 0
5.18679 36.6732 0
6.03559 38.208 0
0.174341 24.0878 0
1.33221 24.4173 0
-8.69846 24.9403 0
-8.66866 25.5534 0
2.69691 34.5217 0
1.8725 34.7744 0
-2.58278 25.7244 0
-1.68713 26.9145 0
10.3777 31.5338 0
9.26823 30.485 0
-2.41575 36.6606 0
-2.78159 38.3272 0
-3.3785 35.8235 0
-3.07042 34.6438 0
9.85401 24.9773 0
9.7701 23.7296 0
-8.67237 28.0157 0
-8.01405 25.9123 0
10.3401 28.7916 0
9.49257 27.0817 0
0.108802 34.3938 0
1.0904 31.9494 0
-9.59247 23.049 0
-9.7769 24.2828 0
12.273 33.1804 0
10.4028 32.1424 0
13.9832 27.3452 0
11.6515 27.3631 0
6.91562 34.7578 0
6.08305 33.8695 0
-0.1485 29.9377 0
-0.376083 28.0314 0
-6.39996 34.4846 0
-7.60687 35.9435 0
3.48353 25.2211 0
2.01203 26.0732 0
6.50242 31.0702 0
6.29613 28.1772 0
5.88287 25.3 0
4.80229 26.0226 0
-3.99825 30.1289 0
-3.51481 30.4706 0
7.93601 24.9392 0
7.5316 25.3987 0
4.47436 30.4797 0
3.95971 33.0345 0
-8.91049 31.8937 0
-7.91021 30.095 0
6.47786 35.826 0
7.52877 37.3713 0
-6.91513 28.7919 0
-4.05266 28.9036 0
-5.33088 34.7216 0
-4.68436 33.9892 0
2.58006 32.3717 0
1.58689 32.5437 0
-12.2064 31.3828 0
-10.5888 30.2342 0
-9.85521 34.0646 0
-8.61564 32.6086 0
0.361692 34.546 0
1.17387 34.182 0
1.41565 28.4223 0
0.881789 27.7941 0
4.61324 34.9794 0
4.86308 34.2027 0
-1.51283 36.3369 0
-1.30459 35.0896 0
-7.16893 27.6376 0
-7.90159 27.3511 0
-5.04394 32.5051 0
-3.68918 31.7325 0
-0.320982 25.8228 0
1.03024 26.2836 0
-1.06881 38.6607 0
-0.80689 36.9057 0
8.26416 28.9217 0
9.6443 28.3991 0
11.3236 26.8818 0
9.84304 26.7244 0
-11.1601 25.5968 0
-9.66395 26.1402 0
3.18725 36.6087 0
3.45937 35.2703 0
-9.1969 27.8937 0
-9.77061 27.0336 0
-1.49775 32.9214 0
-0.245443 32.9064 0
-2.0443 29.1662 0
-0.816844 29.0513 0
-14.0875 25.1952 0
-11.3463 25.1977 0
7.94359 29.8548 0
7.16125 29.9824 0
2.23746 36.9999 0
2.13554 38.9093 0
13.6787 29.2046 0
11.4304 28.2388 0
-6.74938 33.4034 0
-5.53134 32.2964 0
4.16372 30.769 0
3.30639 30.7113 0
-3.27634 28.2013 0
-2.53567 28.3174 0
6.14014 32.4879 0
4.60854 32.0343 0
-10.1471 30.4254 0
-8.56702 29.4782 0
1.56721 30.6043 0
2.89207 30.2231 0
-8.73926 35.0273 0
-7.32223 33.2974 0
-5.84637 29.1293 0
-5.77599 30.8464 0
-5.04152 28.4984 0
-5.18841 27.3727 0
7.81239 34.054 0
7.23259 32.2038 0
-3.55293 34.0353 0
-2.9359 32.4084 0
11.0273 34.7013 0
9.68197 32.9242 0
-0.558428 30.9275 0
0.24549 32.0453 0
-4.28553 25.2319 0
-6.09766 25.6756 0
-2.43561 30.1407 0
-1.62088 31.0854 0
-6.33267 36.878 0
-5.15154 35.4025 0
4.07819 25.8944 0
3.09107 28.1137 0
4.48694 29.7836 0
6.30644 29.1313 0
6.91591 27.5499 0
5.74491 25.6074 0
7.46402 34.6977 0
8.75104 36.5392 0
4.02024 30.7593 0
2.99625 28.1233 0
0.00717557 32.4633 0
1.22464 33.9806 0
CELLS 309 2068
5 0 160 161 4 5
6 7 8 9 3 2 6
6 145 4 161 3 9 144
8 15 156 5 4 145 12 13 14
8 7 16 178 17 147 18 19 8
7 144 9 8 19 20 21 10
6 24 124 125 153 22 23
8 25 26 13 12 11 124 24 127
7 14 13 26 27 28 29 168
6 32 146 147 17 30 31
7 18 33 148 149 152 20 19
5 20 152 153 125 21
7 22 37 163 174 175 40 23
5 24 23 40 126 127
5 26 25 192 193 27
7 28 27 193 170 171 47 173
9 146 32 186 48 49 50 34 148 33
5 36 35 128 129 52
6 36 52 53 162 163 37
6 38 54 55 139 130 131
7 40 175 132 133 59 41 126
6 42 41 59 196 197 43
7 44 43 197 184 185 195 45
8 49 64 65 177 66 134 51 50
7 51 134 135 136 53 52 129
6 53 136 137 55 54 162
8 55 137 70 165 71 233 138 139
7 57 56 140 231 141 142 58
7 59 133 58 142 143 60 196
6 61 60 143 77 198 199
5 65 80 81 176 177
6 67 200 201 208 69 68
7 69 208 209 216 164 165 70
5 71 225 264 265 233
8 73 72 236 291 333 237 241 215
5 91 92 93 210 211
8 77 76 210 93 189 154 155 198
5 6 2 1 96 97
5 16 7 6 97 98
5 30 17 178 179 99
4 101 48 186 187
5 64 49 48 101 102
5 80 65 64 102 103
6 104 105 83 82 176 81
4 105 190 191 83
5 120 121 164 216 217
5 123 214 254 255 122
5 92 91 90 109 110
5 92 110 188 189 93
5 79 78 95 112 113
5 63 62 79 113 114
5 194 195 185 63 114
4 173 47 116 172
5 15 14 168 169 118
5 0 5 156 157 119
5 181 160 0 119 180
4 30 99 100 31
4 80 103 104 81
5 292 293 284 248 249
4 94 111 112 95
5 171 182 183 116 47
6 120 204 205 298 224 121
5 122 242 243 282 123
5 124 11 10 21 125
6 126 41 42 192 25 127
5 128 34 50 51 129
6 130 203 56 57 39 131
5 132 39 57 58 133
5 134 66 67 68 135
6 136 135 68 69 70 137
8 138 207 167 247 202 203 130 139
5 140 73 215 230 231
6 142 141 75 76 77 143
5 144 10 11 12 145
4 146 33 18 147
5 148 34 128 35 149
7 150 221 226 227 74 151 240
7 152 149 35 36 37 22 153
5 154 94 95 78 155
4 156 15 118 157
4 357 222 223 356
6 160 181 1 2 3 161
5 162 54 38 174 163
6 164 121 224 225 71 165
7 166 445 430 431 435 387 337
4 168 29 117 169
6 170 44 45 46 182 171
5 172 117 29 28 173
6 174 38 131 39 132 175
6 176 82 200 67 66 177
4 178 16 98 179
4 180 96 1 181
4 182 46 115 183
6 184 61 199 62 63 185
5 186 32 31 100 187
5 188 111 94 154 189
5 190 106 85 84 191
6 192 42 43 44 170 193
5 194 115 46 45 195
5 196 60 61 184 197
6 198 155 78 79 62 199
6 200 82 83 191 84 201
6 202 72 73 140 56 203
4 204 234 235 205
6 206 261 87 266 267 245
5 208 201 84 85 209
6 210 76 75 74 227 211
6 239 246 247 167 213 274
6 214 123 282 283 259 281
5 216 209 85 106 217
5 218 89 88 108 219
5 220 109 90 226 221
5 222 358 359 320 223
5 224 298 299 264 225
5 226 90 91 211 227
5 228 288 289 229 268
6 230 151 74 75 141 231
7 232 229 289 207 138 233 265
5 234 278 279 86 235
7 236 212 270 302 252 290 291
6 253 248 284 308 309 335
6 240 151 230 215 241 258
5 242 220 221 150 243
6 244 277 312 313 307 269
6 246 212 236 72 202 247
5 248 253 300 301 249
8 295 271 239 274 275 304 354 294
6 252 302 303 362 363 315
4 254 218 219 255
5 256 280 281 259 257
6 258 241 237 257 259 283
4 260 107 87 261
5 580 448 449 530 531
7 264 299 296 297 306 232 265
6 321 267 266 356 223 320
6 268 229 232 306 307 313
5 270 212 246 239 271
5 272 316 317 388 273
6 274 213 288 228 251 275
6 276 433 552 553 457 488
5 278 260 261 206 279
6 280 89 218 254 214 281
6 282 243 150 240 258 283
5 284 293 340 341 308
4 286 472 473 287
5 288 213 167 207 289
7 290 350 285 311 332 333 291
5 292 338 339 340 293
6 328 377 412 413 371 474
6 296 86 279 206 245 297
6 298 205 235 86 296 299
4 300 262 263 301
5 302 270 271 295 303
6 304 275 251 312 277 305
7 306 297 245 267 321 269 307
7 308 341 285 350 351 366 309
7 310 88 89 280 256 332 311
5 312 251 228 268 313
7 314 419 454 455 382 424 496
5 316 432 433 276 317
5 318 458 459 392 319
8 320 359 352 353 369 244 269 321
5 322 444 445 166 323
5 324 368 369 353 325
5 326 343 294 354 355
6 479 423 426 376 534 535
6 330 329 416 417 415 393
5 332 256 257 237 333
6 334 262 300 253 335 404
6 336 421 434 435 431 389
5 338 108 88 310 339
6 340 339 310 311 285 341
7 303 295 294 343 342 380 362
5 344 158 590 591 373
5 346 498 499 482 347
4 348 378 379 349
5 350 290 252 315 351
7 352 411 406 407 441 325 353
7 354 304 305 368 324 327 355
5 356 266 87 107 357
5 358 410 411 352 359
6 360 349 379 314 496 497
7 362 380 409 381 361 331 363
6 364 345 403 436 437 365
6 366 351 315 363 331 367
5 368 305 277 244 369
6 371 413 370 408 450 451
6 438 508 509 469 475 443
5 374 486 484 485 375
6 549 540 541 494 534 376
5 378 418 419 314 379
6 380 342 402 450 408 409
7 382 455 405 367 331 361 383
5 384 395 347 482 483
6 386 440 441 407 337 387
5 388 317 276 488 489
4 390 272 273 391
6 392 459 399 554 555 559
4 394 346 347 395
5 396 326 355 327 397
5 398 564 565 554 399
5 400 546 547 537 505
7 402 342 343 326 396 436 403
6 404 335 309 366 367 405
5 406 323 166 337 407
6 408 370 330 393 381 409
5 410 322 323 406 411
5 412 329 330 370 413
6 414 383 361 381 393 415
6 460 599 461 542 543 491
6 418 263 262 334 454 419
6 420 401 364 365 434 421
6 528 529 495 582 583 575
6 424 382 383 414 452 425
5 426 423 568 569 427
5 428 524 586 587 465
7 430 391 273 388 489 389 431
5 432 500 501 552 433
6 434 365 437 386 387 435
6 436 396 397 440 386 437
8 438 401 420 512 609 513 604 508
6 440 397 327 324 325 441
6 442 345 364 401 438 443
5 444 390 391 430 445
6 446 487 592 593 447 560
5 584 585 572 506 507
6 450 402 403 345 442 451
5 452 414 415 417 453
5 454 334 404 405 455
6 336 516 517 512 420 421
4 458 398 399 459
6 460 453 417 416 598 599
7 612 613 605 439 606 518 574
6 464 533 520 521 428 465
7 608 466 550 566 567 607 511
7 468 372 536 537 547 469 509
8 598 416 329 412 377 480 471 470
5 472 250 522 523 473
6 474 371 451 442 443 475
7 476 425 452 453 460 491 477
6 250 472 286 556 557 538
6 480 377 328 546 400 481
7 482 499 595 344 373 385 483
5 426 427 548 549 376
7 486 374 603 526 527 592 487
6 488 457 516 336 389 489
7 490 558 559 555 477 491 543
7 492 384 483 385 566 550 551
5 494 541 446 560 561
5 496 424 425 476 497
4 498 594 595 499
4 500 570 571 501
6 539 503 502 522 250 538
6 545 515 600 601 447 593
4 374 375 602 603
6 508 604 605 613 468 509
5 510 518 606 607 567
6 512 517 456 466 608 609
7 514 525 576 577 562 600 515
6 516 457 553 493 456 517
6 518 510 463 578 579 574
5 520 448 580 581 521
5 522 502 610 611 523
6 588 589 470 471 576 525
6 526 506 572 573 544 527
7 528 462 478 479 535 615 529
5 530 318 319 238 531
5 532 449 448 520 533
6 534 494 561 614 615 535
6 536 422 504 563 505 537
6 538 557 478 462 519 539
6 540 484 486 487 446 541
7 542 524 428 521 581 490 543
6 544 573 429 514 515 545
6 546 328 474 475 469 547
5 548 485 484 540 549
5 550 466 456 493 551
7 552 501 571 492 551 493 553
7 554 565 360 497 476 477 555
6 556 568 423 479 478 557
5 558 238 319 392 559
7 560 447 601 596 597 614 561
6 562 577 481 400 505 563
5 564 348 349 360 565
7 566 385 373 591 463 510 567
5 568 556 286 287 569
6 570 394 395 384 492 571
7 572 585 464 465 587 429 573
7 574 579 519 462 528 575 612
5 576 471 480 481 577
5 578 503 539 519 579
6 580 531 238 558 490 581
5 582 422 536 372 583
5 584 532 533 464 585
6 525 514 429 587 586 588
6 588 586 524 542 461 589
7 503 578 463 591 590 610 502
5 592 527 544 545 593
5 594 159 158 344 595
6 596 504 422 582 495 597
5 598 470 589 461 599
6 600 562 563 504 596 601
5 602 507 506 526 603
5 604 513 467 439 605
5 606 439 467 511 607
5 608 511 467 513 609
5 610 590 158 159 611
6 612 575 583 372 468 613
5 614 597 495 529 615
CELL_TYPES 309
7
7
7
7
7
7
7
7
7
7
7
7
7
7
7
7
7
7
7
7
7
7
7
7
7
7
7
7
7
7
7
7
7
7
7
7
7
7
7
7
7
7
7
7
7
7
7
7
7
7
7
7
7
7
7
7
7
7
7
7
7
7
7
7
7
7
7
7
7
7
7
7
7
7
7
7
7
7
7
7
7
7
7
7
7
7
7
7
7
7
7
7
7
7
7
7
7
7
7
7
7
7
7
7
7
7
7
7
7
7
7
7
7
7
7
7
7
7
7
7
7
7
7
7
7
7
7
7
7
7
7
7
7
7
7
7
7
7
7
7
7
7
7
7
7
7
7
7
7
7
7
7
7
7
7
7
7
7
7
7
7
7
7
7
7
7
7
7
7
7
7
7
7
7
7
7
7
7
7
7
7
7
7
7
7
7
7
7
7
7
7
7
7
7
7
7
7
7
7
7
7
7
7
7
7
7
7
7
7
7
7
7
7
7
7
7
7
7
7
7
7
7
7
7
7
7
7
7
7
7
7
7
7
7
7
7
7
7
7
7
7
7
7
7
7
7
7
7
7
7
7
7
7
7
7
7
7
7
7
7
7
7
7
7
7
7
7
7
7
7
7
7
7
7
7
7
7
7
7
7
7
7
7
7
7
7
7
7
7
7
7
7
7
7
7
7
7
7
7
7
7
7
7
7
7
7
7
7
7
CELL_DATA 309
SCALARS cell_division_count float
LOOKUP_TABLE default
1
0
1
0
0
0
1
0
0
1
1
1
1
1
1
1
0
1
1
1
1
1
1
0
1
1
1
1
1
1
1
1
2
4
3
1
1
0
0
1
1
0
0
0
1
2
3
0
1
0
0
1
1
1
1
1
0
0
3
0
1
2
3
1
1
1
1
1
1
1
2
2
1
1
1
1
2
1
1
1
3
1
1
2
9
1
1
1
1
1
1
1
1
1
1
1
1
1
1
1
1
1
2
3
5
2
1
3
5
2
2
2
5
3
2
4
2
3
5
5
6
3
3
6
3
4
6
9
3
5
4
4
8
5
6
6
5
4
5
14
5
5
5
7
5
4
6
4
10
5
3
4
6
6
6
7
6
6
11
7
8
7
6
7
8
12
11
6
8
9
4
7
8
12
6
7
7
8
8
3
6
12
10
11
9
7
11
13
8
12
8
11
10
11
9
9
5
14
6
10
8
13
10
10
8
11
6
10
11
14
8
11
12
11
8
12
9
8
9
11
13
9
11
6
14
10
11
12
11
13
8
13
13
11
14
14
10
6
12
13
11
11
11
9
12
9
14
14
12
12
7
9
12
15
9
14
14
14
13
13
12
12
7
12
13
11
8
9
13
14
12
12
14
13
13
9
14
14
14
11
14
13
14
8
14
8
9
13
12
13
12
12
12
10
12
12
12
14
7
13
13
15
9
14
14
14
7
13
13
SCALARS cell_time float
LOOKUP_TABLE default
1761
2.22229e+13
1781
4.48239e+13
2.67348e+11
1.25633e+10
1791
2.68224e+09
9.19769e+11
1781
1781
1771
1741
1791
1711
1751
1.22777e+06
1791
1761
1791
1791
1691
1731
25573.4
1791
1791
1791
1791
1791
1681
1741
1681
1641
1381
1531
1631
1771
1.00108e+18
2.94533e+15
1741
1731
106873
3135.76
1847.34
1721
1621
1421
1838.01
1731
4489.01
2106.18
1711
1751
1761
1771
1741
1.12104e+13
22956.3
1211
3827.96
1741
1661
1481
1791
1791
1791
1791
1791
1791
1791
1671
1551
1791
1781
1781
1781
1611
1771
1771
1771
911
1761
1761
1621
541
1761
1751
1751
1741
1741
1741
1741
1741
1731
1731
1731
1721
1711
1711
1691
1681
1681
1671
1541
1361
1641
1631
1481
1261
1621
1621
1621
911
1201
1611
1231
1551
1541
1271
1231
1121
1501
1481
1111
1481
1201
1211
901
1421
1271
1401
1401
181
1211
1101
1131
1331
1111
1301
131
1271
1271
1261
961
391
1231
1001
981
631
1211
1201
1201
1201
1191
1131
931
1121
1111
471
541
461
921
511
851
921
171
601
1001
991
541
981
961
961
21
321
791
931
651
921
911
641
331
781
541
861
851
481
271
351
151
601
651
771
361
541
341
741
131
721
721
121
141
691
661
651
651
641
631
611
151
601
591
61
581
111
31
541
321
541
541
261
541
531
511
21
51
481
481
471
251
461
11
1
241
121
171
401
241
381
371
131
371
361
141
221
341
131
141
131
331
21
111
161
11
11
11
11
11
81
251
71
71
11
31
111
201
181
181
1
171
161
151
151
151
141
141
141
131
131
131
131
21
131
121
121
111
111
111
101
81
71
71
61
51
31
31
21
21
21
21
11
11
11
11
11
11
11
1
1
SCALARS cell_area float
LOOKUP_TABLE default
3.24222
3.3004
3.29387
3.3565
3.35168
3.3443
3.32789
3.37582
3.34923
3.28204
3.33753
3.28399
3.38666
3.32036
3.30684
3.33047
3.3994
3.29
3.3469
3.39585
3.39251
3.34107
3.34023
3.37341
3.36055
3.37738
3.43776
3.40417
3.39249
3.33071
3.24773
3.29899
3.34811
3.33084
3.44656
3.25146
3.34689
3.25265
3.26114
3.24866
3.23712
3.27841
3.26246
3.27934
3.22105
3.28735
3.26037
3.26442
3.25993
3.24878
3.2684
3.27384
3.21664
3.25719
3.24477
3.2422
3.20976
3.21781
3.27628
3.19696
3.24636
3.30812
3.27256
3.28146
3.33865
3.28688
3.39779
3.35278
3.28236
3.35969
3.44913
3.35292
3.3582
3.28751
3.2487
3.27626
3.34261
3.35223
3.23252
3.22212
3.22706
3.25885
3.33577
3.32894
3.3603
3.22272
3.2973
3.25236
3.37147
3.2889
3.22456
3.20381
3.21627
3.30497
3.25166
3.24557
3.2598
3.32512
3.26344
3.30169
3.291
3.26501
3.39925
3.23699
3.29868
3.24316
3.33002
3.38621
3.29275
3.27989
3.26402
3.27358
3.28135
3.29234
3.24821
3.31327
3.35747
3.40201
3.26099
3.42616
3.29975
3.35218
3.27499
3.34144
3.40314
3.27189
3.43713
3.38991
3.22045
3.28023
3.33451
3.21375
3.28447
3.37043
3.32043
3.34824
3.36116
3.27155
3.36348
3.29792
3.25605
3.28499
3.31704
3.27411
3.23434
3.34734
3.39428
3.27678
3.33494
3.31689
3.30232
3.24367
3.36479
3.35328
3.384
3.3843
3.34065
3.30344
3.34826
3.28174
3.26401
3.40793
3.29677
3.31339
3.35764
3.30513
3.33892
3.32626
3.29546
3.34444
3.27852
3.32562
3.41957
3.27603
3.26145
3.2395
3.35643
3.36719
3.37631
3.24716
3.30008
3.30595
3.41746
3.36058
3.38246
3.31017
3.3554
3.33791
3.29626
3.29676
3.28763
3.38957
3.38866
3.25949
3.34586
3.2639
3.24551
3.288
3.229
3.32822
3.27297
3.28211
3.39813
3.34668
3.29934
3.36736
3.29669
3.31469
3.3643
3.33285
3.31298
3.35949
3.32558
3.33311
3.3004
3.27691
3.33931
3.28492
3.35175
3.34961
3.39524
3.33984
3.35788
3.29004
3.28721
3.30894
3.36901
3.30326
3.29339
3.33848
3.22663
3.32763
3.40014
3.29267
3.33737
3.3424
3.38826
3.28231
3.34784
3.36196
3.27905
3.32063
3.32217
3.30461
3.3228
3.31747
3.35632
3.3441
3.26559
3.30243
3.23506
3.25622
3.2905
3.3052
3.25697
3.29223
3.28265
3.30825
3.3441
3.3095
3.30721
3.25679
3.29545
3.30822
3.30596
3.31363
3.27926
3.29343
3.33823
3.30846
3.29236
3.29639
3.3364
3.30636
3.32631
3.30319
3.28883
3.33686
3.34705
3.29558
3.25316
3.30452
3.30635
3.27621
3.3487
3.285
3.30627
3.33452
3.31579
3.28992
3.26689
3.28386
3.30175
3.3067
3.3079
3.3107
3.32543
3.26511
3.27611
3.31481
3.29169
3.31355
3.29932
3.27275
3.26836
3.27059
3.29293
3
3.27059
SCALARS cell_perimeter float
LOOKUP_TABLE default
6.93073
6.94431
6.96587
7.1996
7.1298
6.82398
7.06707
7.62049
6.93747
6.92833
7.38695
7.00131
6.80818
7.22166
7.0397
6.79555
7.18249
6.96835
6.94148
7.07051
6.92428
7.24194
7.23407
7.55301
7.55877
6.94412
8.1385
7.03162
6.87208
7.0609
6.9547
7.03309
8.254
7.02685
7.02335
7.32809
7.88579
7.52901
7.83765
7.64688
8.28662
8.68603
8.20278
7.76919
7.38463
9.37823
7.89875
7.64902
8.05715
7.66741
8.14427
8.46667
7.79644
8.08715
7.68139
7.2209
7.44239
7.39396
8.08656
7.32846
7.74141
9.42021
8.48865
7.03551
7.11967
7.22486
6.92923
7.04296
7.15331
6.87662
7.95646
7.03625
7.14606
7.08227
7.24157
7.21503
7.82356
7.24365
6.93657
7.88362
8.06194
6.79158
7.01003
7.97769
7.37743
7.99345
6.82599
7.99587
7.02301
6.99844
7.80563
7.31649
7.66488
7.11729
7.94477
7.98052
7.36206
6.93808
8.24765
7.16613
7.16025
6.93888
7.18137
7.94095
7.09841
7.02018
6.83933
7.1797
7.27136
8.50366
8.4316
8.53787
9.47994
7.20227
7.24918
7.08198
6.92959
7.6505
8.10512
6.88931
7.65346
7.21461
8.87347
7.29527
7.26481
7.88102
7.0476
7.0149
7.6367
7.0094
7.29442
7.70865
7.18113
7.45627
7.15338
7.182
7.06474
7.49051
6.87185
6.95986
8.0627
6.86762
7.57582
7.57024
7.29749
7.21687
7.49499
8.61136
6.98655
7.24743
7.22771
7.71196
7.08349
7.28619
6.8988
6.91845
7.96218
7.04564
7.57893
7.26746
7.24585
7.13946
8.55817
7.3789
7.02377
7.08185
6.98615
7.30399
7.33284
7.0404
8.95309
7.91659
7.11358
7.03542
7.23136
7.5765
7.08275
7.15594
7.44683
7.84673
9.87008
6.79902
7.26944
7.18278
6.92249
7.41814
6.85753
6.99188
7.14396
7.08509
8.30865
7.02373
7.62762
6.93288
6.95318
6.97489
7.66304
6.99346
7.328
7.02441
7.68421
6.91262
7.3507
7.13337
7.0908
6.91016
9.06706
7.04937
7.01761
6.92588
8.84815
6.91552
7.04079
7.12306
7.18641
6.96401
7.13767
7.4291
7.10008
7.24559
6.85232
7.18987
7.04877
8.30977
6.95427
7.30504
7.06197
7.14248
7.35098
6.94487
7.35482
7.09857
7.29529
7.17729
6.87764
7.20589
6.88587
7.11697
6.84185
7.01817
6.82633
6.87732
6.94848
7.17016
6.77288
6.87743
6.83509
7.01279
6.94302
6.98576
7.39719
7.56607
6.78107
6.7884
7.30073
7.55328
7.21936
7.25966
6.77448
7.05095
7.21617
7.11288
7.30022
7.16388
6.91133
6.90425
7.15903
7.12142
7.01969
6.82249
6.83088
6.77606
7.04072
7.08122
6.87617
7.09145
6.94348
6.82237
7.02945
6.89638
7.14135
6.79413
6.88267
7.76264
6.83374
7.13574
7.93443
7.20675
6.95076
7.1066
6.9138
7.29348
6.99845
7.30506
7.05799
6.77833
7.11848
6.97107
7.34327
6.82644
7.05445
6.78604
7.16285
7.35121
7.02879
7.20176
7.31189
17
3.27628
SCALARS cell_frequency_modifier float
LOOKUP_TABLE default
5.18628e+17
7.57175e+14
3.83223e+14
2.00446e+14
5.46361e+13
5.5854e+12
2.30719e+10
5.01051e+11
5.61889e+13
4.26042e+15
5.81117e+11
3.58227e+12
3.77153e+08
9.02421e+09
2.4951e+12
1.80026e+13
2.9275e+11
1.43816e+10
2.39313e+08
2.31636e+06
3.21693e+08
4.99783e+09
8.94736e+10
1.12687e+10
2.8043e+08
1.31783e+07
1.55949e+06
3.11827e+06
9.80096e+07
5.69013e+08
3.11541e+12
2.39336e+08
7.40732e+06
683537
25905.1
1.08002e+10
1.96157e+08
6.62586e+18
1.62826e+18
1.91232e+17
9.93879e+14
1.36759e+14
4.30886e+13
8.45376e+11
1.44429e+11
3.64895e+07
2.29338e+07
5.05282e+09
3.3691e+10
8.41417e+12
2.8001e+13
1.05129e+14
1.21843e+17
1.4324e+18
1.14012e+19
10000
6.20444e+16
9.26915e+12
99150.9
1.76768e+12
1.85598e+16
2.01728e+06
8.21761e+07
1.06515e+14
2.81831e+10
1.35875e+11
1.56418e+06
2.14974e+07
1.72611e+10
1.85283e+07
258714
407712
2.79533e+07
7.79822e+13
6.30333e+14
9.28366e+12
1.83498e+06
6.86951e+09
4.46592e+11
7.8152e+18
208363
7.67125e+17
4.31918e+07
2.53163e+06
20.9981
1.13486e+18
7.12164e+12
2.13268e+17
2.14765e+07
1.0439e+10
1.05598e+18
10000
5.34564e+15
3.31982e+10
4.37277e+15
1.53596e+11
1.71805e+10
2.94784e+11
5.15028e+14
6.72708e+09
2.34753e+10
7.39232e+10
213026
9.81903e+07
24404.7
8.22676e+09
1.92897e+07
20079.9
478306
2.5599e+09
1.69746e+06
8.57443e+08
106114
1.93185e+06
1.7852e+09
89679.8
2.4793e+06
198475
2.26849e+07
3067.32
691.028
320243
2.66598e+08
4757.72
29659.5
39975.9
1267.68
370.987
6.28452e+06
5.31772e+06
100077
2.10943e+06
10.2515
55340.8
2808.7
30790.4
5484.39
1552.3
9251.16
7.70579
6.90753e+06
344581
601653
145867
164.872
106791
2512.24
284890
7.20787
48298.2
391269
15426.7
1076.58
2283.67
5763.93
424.745
5956.53
25336.1
17.5129
697.393
204.028
677.502
177.64
750.171
316.474
1.11743
11.5018
18057.5
336.806
10.7443
676835
2470.13
193.173
100.872
107.504
1969.95
887.076
153.131
451.668
625611
742.745
16.6494
73.6064
18.8501
165.553
2326.24
17.2999
4.15709
2.32624
1.74687
160.265
51.2209
37.6782
132.562
59.2169
1099.79
3270.52
14.386
128.176
215.05
563.399
235.13
56.7099
135.934
199.959
26.5792
442.715
16.8685
24.6796
2.33231
55.3228
7.33289
0.706968
18.0123
1.9572
142.66
12.4277
29.3852
20.2504
51.0847
2.38029
178.004
7.38322
184.597
5.16074
0.817504
19.9352
22.9826
202.096
4.96673
314.18
5.43115
0.484912
2.49605
0.996266
1.4268
2.49623
44.0707
8.21181
3.26522
120.897
3.56253
0.70845
1.63397
0.678721
7.61161
1.39666
0.738737
100.506
17.7073
100.24
237.849
2.96829
1.11946
129.878
9.4603
22.1127
3.57848
0.754811
3.95354
0.977368
125.477
2.11255
2.30194
0.946117
0.723277
142.939
1.97149
0.505013
1.52252
2.31148
1.81114
1.00476
1.03617
4.33286
1.68354
9.48043
1.41092
3.18948
1.97993
224.62
1.11286
2.16467
979.367
0.495046
10.1972
1.61803
0.571246
0.746495
10.7245
100.461
21.2557
1.85591
0.891154
1.28816
1.81677
0.627303
101.012
100.819
0.864795
11.6295
1.03568
1.4941
307.265
195.874
339.266
2.18747
1
1
SCALARS cell_area_modifier float
LOOKUP_TABLE default
100
1.23046
1.86626
0.381603
0.406892
0.451803
0.590953
0.337548
0.412357
100
0.512093
10.4068
0.32504
0.668118
0.878398
0.569045
0.304111
3.08543
0.43577
0.310258
0.315033
0.472671
0.480063
0.339414
0.363529
0.333877
0.289759
0.298203
0.316658
0.56382
100
1.36748
0.423741
0.55869
0.288398
100
0.438885
100
100
100
100
100
100
100
100
4.75969
100
100
100
100
100
100