# vtk DataFile Version 2.0
2D-vertex
ASCII
DATASET UNSTRUCTURED_GRID
POINTS 1568 float
0.643713 -5.61198 0
3.09664 -5.36333 0
3.4691 -4.41054 0
2.42708 -3.36064 0
0.152447 -3.25017 0
-0.543394 -4.74605 0
4.00075 -4.36736 0
4.55942 -3.50281 0
3.60258 -2.00775 0
2.55862 -2.34056 0
1.3627 -1.10329 0
-0.335591 -0.652338 0
-1.07994 -1.93659 0
-1.23738 -1.97785 0
-1.72985 -3.64743 0
-1.20809 -4.5231 0
5.13356 -3.64911 0
5.93322 -2.75133 0
4.07131 -1.25491 0
3.79994 -1.32726 0
2.90729 -0.385149 0
1.84003 -0.490702 0
1.12606 3.12386 0
0.275303 3.08533 0
-0.51681 1.19495 0
-1.71253 0.26772 0
-1.6022 -1.63168 0
-2.89136 -1.94075 0
-3.3874 -2.97486 0
-3.07604 -3.68076 0
7.0019 -2.71815 0
7.61208 -1.97652 0
7.406 -0.669811 0
5.16944 0.44857 0
5.6269 1.03793 0
3.25431 2.32343 0
2.46416 3.5983 0
1.57842 3.73925 0
0.608515 6.92945 0
-0.968273 6.94939 0
-0.610236 3.88201 0
-2.09427 2.91946 0
-3.12444 1.35954 0
-4.08367 1.38138 0
-4.80149 -0.0323026 0
-6.20758 -0.356961 0
-6.4796 -1.41939 0
-4.94193 -2.75909 0
7.81902 -0.026014 0
7.45495 0.999085 0
6.69559 1.39918 0
5.90756 3.44432 0
3.53382 4.58486 0
3.44338 5.4631 0
1.96654 7.06941 0
2.48727 7.78236 0
-1.94268 8.33056 0
-1.83015 7.38999 0
-3.06161 6.02673 0
-2.70578 3.87354 0
-4.33853 4.16187 0
-5.70757 2.8319 0
-7.60847 1.32564 0
-7.45932 0.788558 0
8.36111 1.43539 0
8.36104 1.43789 0
6.82119 3.44801 0
7.2206 4.66666 0
5.9108 5.90314 0
6.09999 6.59723 0
5.26065 7.6003 0
4.9569 8.13036 0
-2.65398 10.6456 0
-2.92675 10.2717 0
-6.06643 7.29429 0
-5.39326 6.51572 0
-6.10881 5.13093 0
-6.0233 4.96503 0
-8.59633 1.83222 0
-8.44025 1.47333 0
9.8792 1.79275 0
10.1672 2.76451 0
9.33894 3.72341 0
10.4837 4.18526 0
10.125 5.70584 0
10.2878 6.42738 0
9.27735 11.0341 0
10.1715 13.1466 0
-9.55016 12.3212 0
-9.55001 12.3187 0
-10.0326 6.43301 0
-9.73476 5.90869 0
-10.0745 5.27202 0
-9.32322 4.17867 0
-10.1217 2.91409 0
-9.65005 1.92991 0
4.05777 -7.19278 0
5.25051 -6.60959 0
6.07996 -6.17715 0
8.38718 -4.50587 0
9.63366 -3.02516 0
10.8868 -0.639782 0
10.9785 -0.457195 0
11.642 0.650044 0
12.3492 2.61317 0
12.5271 3.41688 0
12.5419 6.95568 0
12.73 13.7172 0
-13.1269 12.8111 0
-12.6079 6.38694 0
-12.5193 5.09721 0
-12.1261 2.54274 0
-11.2317 0.60768 0
-10.355 -0.485579 0
-9.73358 -1.20593 0
-8.79158 -2.52744 0
-6.80925 -4.62649 0
-4.69492 -5.98035 0
-2.56272 -6.92225 0
0.465387 -7.65742 0
12.3289 8.44708 0
8.23973 8.45869 0
-12.8737 8.88867 0
-9.97745 9.69728 0
-0.257512 0.861677 0
1.03621 0.991663 0
-1.84092 2.893 0
-1.05032 1.17523 0
4.5063 2.55943 0
4.88175 3.49157 0
0.277795 8.54903 0
0.0755931 7.41107 0
-1.14446 5.22858 0
-2.31813 4.91226 0
5.90652 3.44658 0
5.00616 5.39963 0
4.01393 5.87248 0
3.98473 7.25255 0
1.92307 8.82615 0
1.92116 8.82454 0
-2.40297 8.531 0
-3.96612 6.7136 0
-3.51562 6.03382 0
-4.47155 4.74929 0
1.49788 -1.73972 0
0.0741708 -2.77495 0
6.57651 -0.452174 0
5.53128 -2.02821 0
5.16737 0.449977 0
3.1233 1.20112 0
-8.89624 8.08108 0
-5.88393 7.99567 0
3.1208 1.20111 0
1.67194 1.8394 0
-9.3315 4.11232 0
-7.91638 3.51511 0
-0.575561 -4.76346 0
-0.919788 -7.45273 0
14.4996 28.3149 0
17.5801 27.1494 0
1.44885 -5.24589 0
1.51861 -3.79248 0
2.4377 5.81658 0
1.29192 4.76789 0
8.08462 7.9877 0
5.26072 7.60282 0
7.93296 18.8479 0
-0.267997 10.5367 0
-2.50725 -3.92616 0
-3.14672 -6.69323 0
-4.21254 -0.944325 0
-5.07812 -2.13891 0
-5.35518 -5.61278 0
-4.34043 -3.14431 0
0.360815 5.21547 0
-0.536717 4.76622 0
9.31289 3.57412 0
7.7537 2.72613 0
5.76375 -3.28901 0
7.53913 -5.22692 0
2.02507 -7.68477 0
2.0042 -5.66236 0
-6.03036 -2.03694 0
-7.58286 -3.9446 0
-5.29088 1.7377 0
-6.59502 0.474796 0
7.66897 -0.527996 0
10.1793 -2.11961 0
-12.3864 3.933 0
-9.34645 4.13967 0
12.7222 5.47472 0
10.6449 5.20886 0
-2.68066 0.429462 0
-3.56161 -0.94239 0
-9.29603 -1.77708 0
-6.5729 -0.0920255 0
-3.52912 3.66704 0
-4.25441 1.67346 0
-6.76235 3.7117 0
-6.32959 2.91329 0
8.17686 4.86849 0
8.36569 5.36146 0
-1.02012 10.3666 0
-0.754188 9.19476 0
12.333 8.45628 0
9.62306 9.63714 0
9.39733 11.913 0
1.57639 9.42955 0
7.70699 6.6148 0
8.88535 7.36367 0
-7.25092 5.22088 0
-7.59736 5.97455 0
-2.45017 12.7099 0
0.452416 11.8766 0
-9.9079 10.1987 0
-4.1193 10.0935 0
8.88392 7.36573 0
12.3685 7.9859 0
-10.6738 11.3596 0
-13.2022 11.8283 0
-12.6586 7.38216 0
-9.16496 7.63286 0
12.0187 16.4375 0
9.50423 14.601 0
7.88897 8.90158 0
5.75521 9.01862 0
-9.16502 7.63034 0
-7.28806 6.94612 0
1.84261 12.4272 0
3.61625 10.7889 0
-4.40504 8.47888 0
-3.64454 7.84335 0
4.31044 10.5555 0
3.46335 8.96317 0
12.6054 10.1568 0
9.8077 10.1825 0
-3.06294 12.2708 0
-4.53902 11.065 0
-13.406 24.2112 0
-0.257781 13.5429 0
-6.46961 8.53508 0
-4.40516 10.2879 0
-12.7337 8.10854 0
-9.34458 8.67243 0
5.18611 14.7062 0
7.48382 12.6891 0
-1.42658 12.3011 0
-0.860534 10.5658 0
-10.1081 15.6022 0
-13.394 14.5962 0
18.2837 32.4675 0
1.73327 13.5719 0
-3.05404 15.065 0
-10.0462 16.0255 0
-10.6393 10.6806 0
-13.0911 9.93404 0
-6.50566 12.3432 0
-5.94971 11.2601 0
-6.34078 9.30383 0
-7.12067 10.229 0
12.7638 11.8842 0
10.1513 12.5009 0
-10.9228 17.0664 0
-13.9746 16.9416 0
5.5114 10.1324 0
4.32932 10.4894 0
9.48664 13.7956 0
7.51583 13.2498 0
3.4056 11.9825 0
5.91129 14.0107 0
-2.27077 14.2881 0
-0.861822 14.5957 0
13.2931 18.3538 0
10.434 19.6182 0
-0.192718 13.5299 0
0.682034 14.2208 0
11.1767 21.3373 0
3.26514 14.1471 0
12.6685 11.003 0
9.54944 11.4049 0
-8.35146 11.8299 0
-8.37969 10.9503 0
-9.2365 9.02241 0
-7.12579 9.84169 0
-9.72577 15.2487 0
-6.05724 14.2219 0
20.5939 36.2207 0
22.7583 36.1848 0
1.26728 11.7903 0
2.11622 10.243 0
-3.993 13.9585 0
-3.85766 12.649 0
-13.2305 13.8643 0
-9.93427 14.5417 0
-0.689241 16.2402 0
-0.691344 16.2388 0
7.12131 11.0384 0
6.66104 11.9572 0
8.10797 9.40902 0
7.00489 10.7789 0
-10.8607 16.5278 0
-13.6157 15.3508 0
-2.85554 15.0675 0
-1.85934 16.5806 0
0.975599 15.4296 0
2.4534 15.4387 0
5.63684 12.104 0
5.3097 12.7835 0
-7.25339 15.5206 0
-6.9942 16.0576 0
-8.95255 13.1051 0
-6.27938 13.3166 0
3.24826 14.1016 0
4.0875 12.8345 0
-10.244 19.0751 0
-3.92151 16.2907 0
13.7802 19.2399 0
11.2739 20.4763 0
-16.5053 23.0998 0
-13.9129 23.3447 0
7.5235 15.0329 0
6.7589 14.1057 0
12.0067 16.5222 0
8.04552 17.8889 0
3.12783 16.8029 0
4.82328 17.4062 0
0.512207 18.3159 0
2.52026 17.2631 0
-1.1125 24.7229 0
-3.69881 23.1345 0
-3.17703 21.4391 0
-4.40499 18.2706 0
-6.10785 13.0793 0
-4.05246 12.5299 0
-9.46463 18.0079 0
-7.97468 16.9585 0
6.6848 22.2145 0
6.08662 19.2213 0
-13.1318 13.1668 0
-9.26672 13.5775 0
-9.204 13.7354 0
-6.9993 14.74 0
-0.683197 18.608 0
-0.423792 18.2602 0
14.037 27.7174 0
1.67729 22.012 0
16.5005 24.0637 0
14.2779 24.7541 0
-14.9393 18.7277 0
-12.0973 19.5847 0
-5.27286 14.5958 0
-5.11059 15.9667 0
6.92003 15.9395 0
5.81166 15.9362 0
0.675961 15.9151 0
1.28219 17.0048 0
9.68804 14.2565 0
12.5635 14.7037 0
12.0041 16.4895 0
7.51289 15.3782 0
-11.7569 20.602 0
-4.38813 18.7695 0
-2.4191 17.6678 0
-3.527 17.523 0
2.95494 22.2754 0
3.5621 21.5378 0
-5.64008 16.4168 0
-5.53229 17.6734 0
3.1457 16.1615 0
5.19013 15.2982 0
-2.07047 21.3612 0
-0.575816 22.8557 0
1.88673 27.9764 0
11.7457 28.2274 0
-19.3511 38.2489 0
-20.9253 37.4959 0
-19.7979 49.6193 0
-2.66671 24.2363 0
-14.0807 17.1336 0
-11.8847 19.2504 0
-1.9483 18.5316 0
-3.44856 19.4779 0
-7.16844 19.2055 0
-5.71676 19.6242 0
12.2495 24.1538 0
11.0828 27.3802 0
4.03798 19.742 0
5.54155 19.9981 0
10.3916 19.7818 0
7.44461 20.9296 0
12.2593 16.8898 0
10.2347 19.3875 0
-13.4803 22.5932 0
-3.78857 20.7526 0
15.5397 22.3461 0
13.8151 24.0657 0
1.59065 19.3366 0
2.74472 18.5658 0
-15.6301 20.1345 0
-13.503 21.5203 0
-1.94882 26.407 0
3.4805 23.5788 0
-0.063941 20.144 0
1.26527 20.4599 0
-7.96361 17.141 0
-6.61921 18.1356 0
7.16212 17.1356 0
5.64507 18.0166 0
-1.57835 20.5594 0
-2.3522 19.2838 0
11.9999 16.5016 0
7.32754 16.6434 0
-2.75457 23.7531 0
-1.52152 22.6358 0
-5.66441 20.3372 0
-4.70746 21.0132 0
-4.51141 23.2768 0
-5.14958 22.3597 0
-13.9806 16.9497 0
-10.1478 18.6527 0
4.61442 23.5614 0
5.21012 22.286 0
-0.333607 29.1308 0
18.5717 59.0126 0
-7.94373 20.1 0
-7.67638 21.2671 0
7.32339 68.1872 0
7.37879 69.7415 0
-10.095 26.153 0
-8.17766 28.7477 0
8.5502 19.2538 0
7.3006 20.6018 0
14.2511 20.0662 0
11.5902 21.6068 0
4.8701 21.6784 0
5.73051 20.4256 0
1.65973 20.1128 0
3.24016 20.5944 0
2.89156 24.2448 0
4.91566 27.9241 0
3.81162 18.9286 0
4.94051 17.8186 0
1.24931 22.4576 0
1.60353 23.8538 0
12.0409 16.5965 0
8.52644 19.1395 0
-7.02655 34.5652 0
-4.77233 30.8259 0
-13.9443 25.6177 0
-16.8501 25.0132 0
-0.481459 20.6581 0
0.061646 22.1758 0
-7.13294 21.4555 0
-6.823 22.3684 0
-9.47547 18.3718 0
-7.16883 19.203 0
7.99527 24.4358 0
8.87264 22.5543 0
-16.2795 21.9047 0
-13.7459 22.1884 0
-7.25655 23.0378 0
-7.25129 24.6714 0
4.91072 32.1763 0
8.5272 30.2666 0
-14.3983 27.4354 0
-9.90583 27.2194 0
7.88901 25.0478 0
5.33183 26.6834 0
2.20546 27.6604 0
1.14054 25.7538 0
-4.76959 25.0857 0
-4.60531 25.2074 0
20.35 35.1835 0
22.2396 34.2196 0
-0.287331 23.9744 0
0.981728 24.4018 0
-9.26736 21.9924 0
-9.41858 22.3756 0
6.80284 36.6445 0
13.185 44.7687 0
-3.30881 24.9972 0
-2.76473 26.2508 0
14.0604 25.3151 0
11.6867 25.9357 0
-19.7794 42.3165 0
-21.8281 41.6658 0
-18.2304 40.3974 0
-8.47284 33.684 0
9.12524 21.8953 0
8.65096 21.0442 0
-10.4173 24.2807 0
-8.86685 23.1171 0
11.9879 23.772 0
9.59449 23.8499 0
-1.83563 36.3559 0
-0.545352 30.7829 0
-9.56458 19.9554 0
-10.0809 20.8727 0
16.9541 25.3305 0
14.5746 25.9324 0
14.6736 20.7329 0
12.3549 22.5567 0
16.956 30.7858 0
13.1826 31.8979 0
-1.85277 29.0981 0
-1.53218 27.4449 0
-16.1885 32.0569 0
-18.2757 30.9258 0
3.04978 25.3843 0
1.94063 26.1351 0
7.63221 29.4188 0
6.64032 26.3399 0
5.19183 24.1242 0
4.31335 25.3819 0
-6.14767 28.1304 0
-5.56901 28.8853 0
7.18676 22.8788 0
6.99088 23.5087 0
5.84622 29.6028 0
6.53445 32.183 0
-13.9101 25.7249 0
-10.7693 25.8883 0
18.5341 31.7721 0
20.7573 30.991 0
-8.72689 25.4908 0
-5.96448 27.4757 0
-14.6551 34.5917 0
-10.6891 32.0287 0
3.42006 31.6151 0
2.99606 31.924 0
-16.6785 24.141 0
-13.5932 24.5112 0
-17.1047 26.217 0
-14.7274 26.647 0
0.0667675 39.8247 0
[...]
CELL_DATA 785
SCALARS cell_division_count float
LOOKUP_TABLE default
1
0
1
0
0
0
1
0
0
1
1
1
1
1
1
1
0
1
1
1
1
1
1
0
1
1
1
1
1
1
1
1
2
4
3
1
1
0
0
1
1
0
0
0
1
2
3
0
1
0
0
1
1
1
1
1
0
0
3
0
1
2
3
1
1
1
1
1
1
1
2
2
1
1
1
1
2
1
1
1
3
1
1
2
9
1
1
1
1
1
1
1
1
1
1
1
1
1
1
1
1
1
2
3
5
2
1
3
5
2
2
2
5
3
2
4
2
3
5
5
6
3
3
6
3
4
6
9
3
5
4
4
8
5
6
6
5
4
5
14
5
5
5
7
5
4
6
4
10
5
3
4
6
6
6
7
6
6
11
7
8
7
6
7
8
18
11
6
8
9
4
7
8
13
6
7
7
8
8
3
6
12
10
11
9
7
11
13
9
16
8
11
10
11
9
9
5
14
6
10
8
13
10
10
8
11
6
10
11
14
8
11
13
11
9
12
9
8
9
11
13
9
11
6
16
13
11
12
11
13
8
13
13
12
15
14
10
8
12
13
14
11
12
13
17
9
14
15
15
12
7
9
14
15
11
14
14
14
13
13
12
12
8
12
16
14
8
9
17
14
15
17
14
14
13
11
14
14
14
15
14
15
14
8
15
9
9
14
13
13
14
12
12
10
12
12
14
15
7
13
13
15
11
14
14
14
8
13
15
12
16
15
15
15
13
14
15
16
12
15
19
10
11
14
16
14
16
17
14
15
12
7
13
13
19
14
15
13
16
16
13
16
15
12
15
14
17
13
10
9
14
18
13
15
14
15
11
17
15
15
16
15
14
14
13
15
14
21
16
15
17
15
15
15
17
8
16
15
15
16
13
14
10
19
16
17
12
16
18
14
18
16
15
9
16
15
14
14
22
16
19
14
15
15
22
18
14
17
8
11
11
14
15
12
17
15
15
16
17
15
16
15
16
16
16
20
16
15
15
17
20
16
20
17
17
18
15
19
14
16
20
11
11
13
13
16
17
18
20
19
17
18
17
17
17
15
17
16
17
16
19
12
11
16
17
17
20
13
16
19
15
16
15
19
20
18
20
15
20
22
17
18
18
20
20
15
14
18
16
16
16
17
19
16
18
15
17
17
17
13
17
18
22
17
18
17
20
22
17
16
22
21
20
20
20
16
11
22
17
18
17
15
19
17
16
19
20
17
17
18
13
20
13
20
17
18
17
19
18
22
18
17
13
17
14
18
22
19
17
19
23
21
19
21
16
17
22
21
12
16
14
16
20
10
20
16
19
17
21
20
17
21
19
18
22
21
18
21
18
17
12
14
16
20
20
18
20
21
21
18
20
19
18
18
17
16
18
19
19
21
20
11
19
19
14
15
22
20
23
16
19
20
22
14
19
22
21
22
19
19
20
19
22
21
18
13
20
21
22
17
21
18
21
21
20
21
22
21
14
18
20
13
21
19
21
20
21
17
13
18
23
21
21
21
21
20
20
17
19
22
22
22
18
23
16
19
18
22
21
21
21
14
20
19
22
20
20
17
21
14
20
22
20
22
20
15
20
20
20
20
22
18
22
15
20
22
18
21
21
20
18
21
18
18
18
20
18
20
22
21
19
15
24
23
21
24
22
20
18
20
14
21
20
22
19
22
23
20
21
16
22
22
15
21
20
21
20
22
22
22
18
22
21
22
19
22
22
21
22
18
20
14
20
18
20
22
22
19
23
14
15
19
13
18
22
21
18
22
19
20
19
21
23
15
24
15
20
21
22
21
22
22
21
24
20
SCALARS cell_time float
LOOKUP_TABLE default
2881
2.22229e+13
2901
4.48239e+13
2.67348e+11
1.25633e+10
2911
2.68224e+09
9.19769e+11
2901
2901
2891
2861
2911
2831
2871
1.22889e+06
2911
2881
2911
2911
2811
2851
26693.4
2911
2911
2911
2911
2911
2801
2861
2801
2761
2501
2651
2751
2891
1.00108e+18
2.94533e+15
2861
2851
107993
4255.76
2967.34
2841
2741
2541
2958.01
2851
5609.01
3226.18
2831
2871
2881
2891
2861
1.12104e+13
24076.3
2331
4947.96
2861
2781
2601
2911
2911
2911
2911
2911
2911
2911
2791
2671
2911
2901
2901
2901
2731
2891
2891
2891
2031
2881
2881
2741
1661
2881
2871
2871
2861
2861
2861
2861
2861
2851
2851
2851
2841
2831
2831
2811
2801
2801
2791
2661
2481
2761
2751
2601
2381
2741
2741
2741
2031
2321
2731
2351
2671
2661
2391
2351
2241
2621
2601
2231
2601
2321
2331
2021
2541
2391
2521
2521
1301
2331
2221
2251
2451
2231
2421
1251
2391
2391
2381
2081
1511
2351
2121
2101
1751
2331
2321
2321
2321
2311
2251
2051
2241
2231
1591
1661
1581
2041
1631
1971
2041
571
1721
2121
2111
1661
2101
2081
2081
931
1441
1911
2051
1771
2041
2031
1761
1451
1901
1661
1981
1971
1601
1391
1081
301
1721
1771
1891
1481
1661
1461
1861
1251
1841
1841
1241
1261
1811
1781
1771
1771
1761
1751
1731
1271
1721
1711
991
1701
921
1151
1661
1441
1661
1661
1381
1661
1651
1631
811
811
1601
1601
1591
1371
1581
1131
1121
1091
1091
1291
1521
741
1501
1491
661
1491
1111
221
331
1461
1251
1101
571
1451
1141
1231
811
1131
651
1131
1131
1131
1201
1371
1191
1191
821
1151
771
871
1301
1301
591
1291
721
351
1271
1071
1261
581
1261
1251
1251
1
1251
771
1251
1241
1111
1051
1231
1111
1111
1201
751
1191
1181
1171
1151
1151
771
1001
1141
1141
1131
1131
741
1131
1131
1131
941
1121
851
1111
571
701
1111
851
1111
931
1101
821
1091
1091
291
361
1081
911
581
1071
451
441
901
571
421
1041
241
1031
381
1011
1001
991
801
531
981
751
971
961
781
961
601
941
941
781
941
311
931
731
931
671
291
581
741
911
61
761
901
21
541
521
871
11
731
851
391
851
721
851
521
821
821
821
821
811
811
811
811
291
691
221
331
801
341
791
301
541
781
781
771
771
771
441
61
381
191
761
21
761
131
531
751
601
741
451
741
741
741
591
481
731
601
731
601
721
721
721
481
581
711
91
361
701
701
551
211
691
141
421
431
101
671
261
661
661
151
651
651
511
631
531
351
501
161
301
441
11
601
411
601
601
601
371
591
441
291
591
581
581
581
421
321
291
581
471
571
571
571
21
211
51
101
131
1
61
441
91
421
221
131
61
371
31
541
331
531
381
401
531
231
521
521
421
311
511
341
501
81
501
501
211
151
71
481
481
11
61
331
31
241
451
451
131
441
321
441
281
321
441
441
11
151
441
431
431
21
11
221
101
421
421
421
91
421
31
181
421
211
411
151
171
101
401
391
281
71
261
381
171
381
381
51
41
371
371
371
371
151
361
61
361
361
351
191
231
351
61
351
341
41
1
141
171
221
331
331
331
331
331
231
111
161
101
201
321
71
321
311
21
311
301
301
101
301
171
151
291
291
291
91
101
191
121
101
181
281
281
1
161
271
31
1
101
261
11
151
81
1
251
41
241
41
51
1
241
231
231
231
111
231
131
21
101
41
111
221
221
11
31
71
211
1
211
211
111
101
201
201
91
201
61
91
191
191
51
191
101
181
11
181
51
171
61
171
171
171
161
161
161
61
41
161
161
161
161
151
61
151
51
151
11
151
151
151
141
51
141
131
131
131
131
131
131
131
121
111
111
111
111
101
101
101
101
101
101
101
101
11
31
101
1
101
91
91
1
91
91
91
81
81
71
71
71
71
61
61
61
61
61
61
61
61
61
61
61
51
51
51
51
51
51
51
41
41
41
41
41
41
31
31
31
31
31
31
21
21
21
21
21
21
11
11
11
11
11
11
11
11
11
11
1
1
1
1
1
1
1
1
1
1
SCALARS cell_area float
LOOKUP_TABLE default
3.2416
3.2996
3.29283
3.35561
3.35083
3.34295
3.32577
3.37384
3.34822
3.28111
3.33591
3.28145
3.38529
3.31821
3.30523
3.32936
3.39783
3.28774
3.34515
3.39632
3.39091
3.3385
3.33854
3.37088
3.35695
3.37428
3.43837
3.40045
3.38999
3.32833
3.24619
3.29565
3.35011
3.33546
3.44229
3.24876
3.34427
3.2525
3.26096
3.24842
3.23652
3.27757
3.2612
3.27792
3.21916
3.28316
3.25436
3.26223
3.25844
3.24777
3.2675
3.27311
3.21636
3.25706
3.24468
3.24207
3.20932
3.21639
3.26329
3.19558
3.24607
3.30478
3.26753
3.27958
3.33631
3.28392
3.39732
3.35022
3.27857
3.35496
3.45038
3.34947
3.35559
3.28614
3.24764
3.27377
3.3401
3.35023
3.23061
3.22202
3.21639
3.25826
3.33372
3.32991
3.36788
3.22253
3.29609
3.25217
3.36846
3.2864
3.22435
3.20359
3.21575
3.30308
3.25124
3.24413
3.2578
3.32332
3.26287
3.29924
3.28887
3.26236
3.40005
3.23035
3.29074
3.23905
3.32707
3.38196
3.28961
3.27793
3.25642
3.27093
3.27035
3.2915
3.24448
3.31422
3.35486
3.40405
3.25293
3.42166
3.30135
3.34695
3.27049
3.34634
3.4044
3.25699
3.43897
3.39466
3.214
3.2781
3.33305
3.20421
3.27781
3.36921
3.31164
3.3526
3.36435
3.25611
3.36268
3.3054
3.24711
3.27903
3.3139
3.27194
3.23356
3.34593
3.39937
3.2665
3.38078
3.31142
3.29824
3.22831
3.37105
3.35933
3.38155
3.38479
3.33659
3.30674
3.35317
3.26535
3.25242
3.40875
3.2806
3.31765
3.36703
3.37666
3.36962
3.32685
3.2991
3.36488
3.26874
3.32349
3.4308
3.29294
3.26686
3.22517
3.35931
3.365
3.39181
3.23642
3.29514
3.30819
3.43713
3.39077
3.38873
3.31556
3.38754
3.40678
3.30073
3.35395
3.27054
3.41153
3.40342
3.28127
3.35452
3.26823
3.22886
3.28673
3.23203
3.34181
3.25354
3.34666
3.42129
3.35206
3.2989
3.39239
3.28572
3.35102
3.38595
3.36908
3.30529
3.39318
3.40488
3.3586
3.23493
3.31963
3.34058
3.26773
3.37292
3.37143
3.44973
3.35092
3.40355
3.27227
3.3916
3.28304
3.3995
3.33175
3.30721
3.372
3.21343
3.36177
3.43973
3.26108
3.3513
3.41844
3.4321
3.27466
3.39371
3.38722
3.29145
3.37572
3.26439
3.36617
3.34301
3.33803
3.38286
3.29462
3.32568
3.31697
3.28353
3.24066
3.33334
3.38307
3.30435
3.39535
3.32246
3.35465
3.41035
3.341
3.35117
3.30474
3.22927
3.36879
3.38363
3.41508
3.26835
3.27735
3.40329
3.37763
3.38555
3.33189
3.37982
3.39196
3.38497
3.32129
3.34467
3.33547
3.3538
3.33864
3.26086
3.35868
3.37187
3.25744
3.38097
3.26377
3.28974
3.28949
3.35616
3.35004
3.36787
3.30701
3.37309
3.28092
3.39134
3.35596
3.37556
3.4005
3.30024
3.39929
3.33646
3.38647
3.33791
3.34964
3.35082
3.33045
3.25022
3.40385
3.391
3.30885
3.40799
3.33424
3.31915
3.33686
3.40051
3.31783
3.40059
3.37689
3.35568
3.35231
3.31622
3.32091
3.28629
3.34523
3.37959
3.35613
3.328
3.30069
3.37536
3.3221
3.31614
3.27257
3.31386
3.33889
3.34832
3.38157
3.35547
3.30137
3.38314
3.37755
3.351
3.31306
3.27739
3.2933
3.32817
3.35792
3.34202
3.34917
3.24404
3.33782
3.42958
3.38097
3.33519
3.35252
3.31941
3.35895
3.28834
3.36982
3.35742
3.35486
3.31533
3.31829
3.35735
3.26692
3.30565
3.28953
3.34678
3.30477
3.3918
3.3484
3.3755
3.32044
3.40833
3.35769
3.33748
3.26649
3.36918
3.31237
3.38369
3.36934
3.29907
3.3023
3.31524
3.35794
3.35002
3.30057
3.31283
3.37071
3.38483
3.31167
3.37841
3.3289
3.3354
3.30531
3.28754
3.37384
3.31162
3.31919
3.3092
3.31559
3.32407
3.31038
3.30395
3.38143
3.34763
3.34147
3.34375
3.30024
3.28194
3.30015
3.29874
3.36327
3.37131
3.29866
3.3616
3.31658
3.32499
3.35541
3.35102
3.36137
3.31737
3.37263
3.36182
3.43123
3.37798
3.36685
3.36988
3.35959
3.39072
3.38046
3.33521
3.37107
3.34452
3.3347
3.3331
3.31301
3.30655
3.37044
3.32175
3.3315
3.3132
3.28664
3.26314
3.30522
3.31242
3.31253
3.35217
3.36836
3.32865
3.4002
3.34478
3.29203
3.30291
3.383
3.38124
3.30928
3.3268
3.33774
3.36553
3.32674
3.35798
3.28103
3.31528
3.39104
3.35799
3.40894
3.32694
3.3137
3.32314
3.39429
3.30888
3.38807
3.32824
3.30048
3.32457
3.30059
3.35124
3.32021
3.37562
3.40484
3.35538
3.36915
3.35962
3.38801
3.33371
3.32653
3.31393
3.3309
3.30033
3.32385
3.39383
3.32005
3.36962
3.31719
3.34501
3.35384
3.32714
3.32746
3.32113
3.30786
3.33908
3.35029
3.36278
3.35218
3.36788
3.32549
3.33016
3.28585
3.38865
3.37581
3.29398
3.32475
3.32757
3.316
3.33233
3.3521
3.25586
3.3692
3.29884
3.35932
3.34616
3.31982
3.43076
3.39129
3.38489
3.2937
3.3219
3.34119
3.30587
3.33098
3.33045
3.31625
3.35186
3.33248
3.33204
3.35981
3.34951
3.33673
3.36998
3.36611
3.36945
3.35558
3.27242
3.37582
3.33995
3.29459
3.31335
3.38504
3.38369
3.37095
3.36432
3.27529
3.41017
3.32769
3.36719
3.34802
3.33837
3.30762
3.3184
3.33915
3.30859
3.3228
3.35422
3.24323
3.3108
3.33818
3.31841
3.35157
3.32747
3.31352
3.33492
3.33935
3.42931
3.35414
3.41298
3.35203
3.36706
3.35488
3.34457
3.2643
3.31344
3.26608
3.30149
3.38094
3.37725
3.32374
3.33978
3.34474
3.28244
3.35955
3.34179
3.31169
3.3477
3.35376
3.33089
3.28531
3.30549
3.28358
3.36529
3.30729
3.28829
3.24859
3.35779
3.37224
3.3278
3.34551
3.33253
3.35345
3.32687
3.32185
3.31552
3.32509
3.34535
3.32168
3.32304
3.29731
3.32955
3.34915
3.31326
3.31539
3.32012
3.36308
3.33217
3.33055
3.34339
3.32157
3.3239
3.29097
3.36564
3.35975
3.32233
3.29139
3.3764
3.34025
3.34437
3.34242
3.37217
3.34774
3.33161
3.34184
3.37002
3.31902
3.28596
3.34456
3.32682
3.38161
3.37829
3.33562
3.31158
3.32664
3.32837
3.34319
3.28304
3.33062
3.32035
3.34551
3.36093
3.32277
3.32656
3.32863
3.33877
3.36833
3.3811
3.29708
3.32362
3.32195
3.32198
3.31467
3.34573
3.31278
3.31528
3.32321
3.38604
3.28644
3.367
3.33872
3.32755
3.32893
3.31454
3.31248
3.30645
3.33443
3.33133
3.36628
3.32764
3.33662
3.33368
3.37162
3.3195
3.31181
3.27336
3.39052
3.33075
3.30847
3.32193
3.28606
3.34579
3.33129
3.29495
3.32227
3.32763
3.30039
3.2965
3.33136
3.30887
3.29957
3.28186
3.33039
3.31531
3.34406
3.31696
3.37367
3.32191
3.3694
3.3065
3.38049
3.33453
3.36131
3.32372
3.37544
3.36254
3.29679
3.29227
3.34033
3.33864
3.30994
3.32294
3.31811
3.33257
3.25702
3.32579
3.38638
3.29383
3.32758
3.30354
3.33703
3.29375
3.27924
3.36915
3.33061
3.32956
3.35095
3.3462
3.32486
3.32924
3.33631
3.31551
3.31937
3.36409
3.32884
3.30937
3.30398
3.3431
3.30703
3.28652
3.32253
3.29723
3.338
3.33418
3.30043
3.31925
3.28029
3.29938
3.33585
3.33113
3.27199
3.32467
3.33363
3.34017
3.28504
3.30176
3.29236
3.29557
3.32271
3.32635
332
519
3.31237
179
503
3.32035
3.36918
0
0
0
SCALARS cell_perimeter float
LOOKUP_TABLE default
6.92859
6.94125
6.96528
7.19391
7.12592
6.82089
7.07903
7.64825
6.93308
6.92846
7.38873
7.00215
6.79839
7.24448
7.04267
6.79278
7.17392
6.96955
6.92195
6.97447
6.94194
7.27067
7.2393
7.5789
7.5998
6.95839
7.9671
7.14991
6.90347
7.06812
6.94873
7.04886
8.17901
7.03407
7.1307
7.33574
7.89011
7.51764
7.82363
7.63593
8.26516
8.6564
8.18317
7.75646
7.38059
9.60004
8.01977
7.64426
8.04171
7.65182
8.1177
8.43349
7.78104
8.06765
7.67058
7.21426
7.43488
7.38823
8.80919
7.32323
7.72429
9.70505
8.60382
7.03628
7.1506
7.24124
6.89927
7.09014
7.18427
6.86462
7.78332
7.07368
7.16955
7.07891
7.24069
7.21754
7.78288
7.27184
6.93598
7.86949
8.23157
6.78998
7.02185
7.85088
7.49611
7.97617
6.822
7.97635
7.08862
6.9969
7.7947
7.31309
7.64963
7.12915
7.92861
7.96637
7.36017
6.94242
8.21824
7.18811
7.16868
6.9419
7.11123
8.0519
7.21713
7.03075
6.85299
7.48623
7.31395
8.58807
8.64716
8.55604
10.1672
7.21598
7.23738
7.05648
6.91631
7.37078
8.25427
7.16293
7.63544
7.28835
8.93335
7.16379
7.26999
8.60345
7.26713
7.14578
7.71183
7.02466
7.28324
7.78502
8.31214
7.31659
7.31013
7.05195
7.05184
8.2239
6.95234
7.3427
8.20211
6.91065
7.57232
7.5559
7.38396
7.23309
7.19608
9.21415
7.02396
7.34008
7.31047
8.22318
7.09701
7.13602
6.81386
6.83764
8.00943
6.99102
7.53921
8.18042
7.72073
6.8125
10.237
7.32249
7.14581
6.92586
7.00791
7.14935
7.42296
7.12324
9.40568
7.84893
7.16474
7.41794
7.53243
8.22535
6.99542
7.12725
6.96477
7.9783
10.9437
6.98127
6.89742
7.04019
6.91137
7.33831
6.94474
6.91224
7.52202
7.1584
9.537
7.03299
7.24988
7.42583
6.9167
7.23988
8.43853
7.34523
7.56046
6.97983
8.43983
7.01587
7.18345
7.02983
7.04761
6.89412
10.5668
7.06371
6.91737
6.90865
10.087
6.91419
7.05376
7.02792
7.41882
7.03237
7.72173
8.29647
6.99231
6.95795
6.93942
7.02253
7.00329
9.72548
7.31798
8.37995
7.08485
7.0722
7.42227
7.08404
7.68448
7.1261
7.07047
7.36517
7.0965
6.96076
6.90087
7.48324
6.91615
7.03372
6.88492
6.93117
7.56877
7.08715
7.02535
6.93408
6.83362
7.18161
6.87981
7.00985
8.09455
8.2464
6.81765
7.04871
7.462
7.35552
7.1191
7.29879
6.8567
7.09313
7.28951
7.65568
7.50232
7.14593
7.1386
6.9351
8.12441
7.95902
6.90112
7.08744
7.03584
7.08608
6.88279
7.55036
6.95289
7.65756
7.00392
7.45621
7.49108
6.81575
7.44891
6.92472
6.9511
8.61688
6.7953
7.35714
8.55907
7.45589
7.18863
7.06959
6.93545
7.68156
7.27474
7.70025
7.07199
6.97082
7.05478
7.18375
8.54158
6.99008
7.09445
6.95337
9.50271
7.28309
7.07245
7.09863
8.08151
7.07522
7.07841
7.67943
6.98547
7.44427
7.00919
6.82412
7.28502
7.12405
6.98196
7.16332
6.80227
7.07612
6.90713
7.9262
7.84355
7.12316
6.95988
7.15637
6.99269
7.22336
6.93992
7.03022
7.40119
7.6315
7.2406
7.03417
7.01621
6.99233
7.60072
7.34881
6.93963
7.35958
7.06574
7.08063
7.29917
8.64892
7.00753
7.16971
7.02996
6.9408
7.61312
9.91638
7.40956
6.88602
7.41443
7.10616
7.17162
6.97866
7.15074
6.87935
6.94137
6.94826
7.06557
6.97091
6.96685
7.31648
7.36914
7.17507
7.11935
6.78926
7.15276
7.01152
6.99438
7.0768
6.94015
7.11177
6.88706
7.76006
7.93843
7.05777
7.31465
6.98974
9.01664
6.86474
7.74638
7.02991
6.87665
6.88798
7.12105
7.04556
6.93648
7.03427
6.92079
7.03757
6.87002
9.25973
7.00862
7.00156
7.10933
7.10071
7.07305
6.9509
6.93922
7.05084
7.24525
6.94424
6.87818
6.98999
6.8979
7.18514
7.69347
7.49026
8.8118
7.02383
6.98529
7.85232
6.96765
6.96702
7.26263
6.89027
7.10573
6.99112
7.05295
6.89244
6.97184
7.23993
6.95583
7.2941
7.01965
7.37467
6.87488
6.9085
7.0626
6.9794
7.29121
6.89152
6.93244
6.97046
7.06996
7.14099
6.85116
7.06342
6.96561
7.23354
7.33213
7.9049
7.0714
6.83306
6.87813
7.15582
7.00694
6.96889
6.96934
6.9538
6.94223
6.86403
7.09044
7.08614
7.08541
7.13903
7.00867
6.98752
6.91967
7.52702
7.66058
6.83468
6.94968
6.87921
7.03202
7.17504
7.47665
7.0119
6.94473
6.88058
7.30206
7.16108
6.90869
7.24771
7.24922
7.11548
7.34815
7.01851
6.92652
7.06098
6.90444
7.02562
6.84857
7.25274
7.51487
6.80576
7.04197
6.90645
7.15122
7.23347
6.84498
6.98093
7.20546
7.92019
7.01652
6.98787
6.90223
8.09738
7.04816
6.99162
7.40951
6.93682
7.0506
6.92571
7.0967
6.96396
7.04366
7.06474
6.92515
6.87377
6.97908
7.07737
7.12286
6.95521
7.40272
6.89326
7.26526
6.94716
7.15272
7.10893
7.2417
7.0942
7.48379
7.02258
6.88942
6.98226
6.99875
7.06698
7.35095
7.02352
7.58228
6.94967
6.90875
6.91993
7.02424
6.88963
7.60748
6.97773
7.11633
6.92517
7.32552
6.94852
7.18353
7.10301
7.07358
7.03412
7.11772
7.20551
6.78927
7.01017
7.07613
6.82684
6.92916
7.089
6.87623
7.00373
7.14131
7.09311
7.43788
7.00631
7.12892
7.32802
7.22165
6.89218
7.11943
7.05461
7.10692
7.02657
6.89398
6.87528
7.04712
6.90654
7.19922
6.89848
7.34829
6.94481
6.88738
6.93758
7.47168
7.31745
6.93382
7.09294
7.0097
6.83714
7.01866
6.96136
6.93461
7.15755
7.16274
7.02975
6.89669
6.97737
7.21598
7.00402
6.95491
6.98812
6.94741
6.80204
7.00032
7.29892
7.19643
7.02129
7.1521
7.387
6.97017
6.86402
6.8819
7.10633
6.98044
6.9675
7.10191
7.15993
6.81424
7.07187
6.97581
7.03715
7.27116
6.95326
6.98223
6.95043
6.8462
6.9596
6.96683
7.23428
7.02119
7.19786
6.9519
6.91417
6.98924
6.92231
7.01759
6.85251
6.88604
6.91027
6.87866
6.88521
7.24708
7.11561
7.10051
7.46614
7.29555
6.95188
6.85193
6.78969
6.966
6.83149
7.19533
6.88726
6.89376
6.93881
7.00937
7.06848
6.86115
6.93131
6.95729
6.87626
6.86581
7.17078
6.94534
6.83838
7.03721
7.00948
7.09406
6.91395
6.98208
6.81419
6.87476
6.82036
7.08662
7.18169
6.87901
6.96224
7.50733
7.00875
7.01931
6.84911
6.82973
7.19869
6.81329
7.02879
7.07724
6.77344
6.87732
7.29353
6.86182
6.85585
6.967
7.12469
6.91503
7.17237
6.89108
7.17036
6.91944
6.96707
6.93126
7.02892
6.93663
6.89744
6.90686
6.94627
6.95946
6.86778
6.96643
7.12645
7.04887
7.03654
7.09137
6.94708
7.09006
7.36066
6.90027
7.03758
6.95104
6.98121
6.83164
6.88063
6.91971
6.83454
7.40735
6.93109
6.96163
7.17715
6.90099
6.96637
7.06992
7.07774
6.92109
7.08998
7.16146
7.02385
7.3437
6.93199
7.09743
7.11713
6.9688
6.90443
7.29139
7.09048
7.28422
7.02574
7.01291
7.22544
7.50611
6.88443
6.95375
7.08278
6.89924
6.87925
7.00563
7.14694
6.8517
6.97872
6.98781
6.96918
7.03877
6.90034
6.88314
7.15452
7.27675
7.20593
7.15376
6.87261
7.2862
6.91152
6.893
6.87255
7.11338
7.19049
7.0102
7.19532
6.99804
7.26794
7.12627
185
138
3.3289
193
3.20932
3.3221
3.37088
0
0
0
SCALARS cell_frequency_modifier float
LOOKUP_TABLE default
3.89813e+18
9.79979e+17
5.83736e+17
5.34152e+15
1.99499e+15
6.76949e+14
4.52824e+13
1.2885e+14
3.12314e+15
1.6751e+17
1.79323e+14
1.21856e+16
1.11711e+12
4.91908e+13
5.52957e+16
2.5988e+15
5.43632e+13
7.33944e+14
1.13471e+12
2.86085e+10
1.09641e+12
1.25205e+13
8.28553e+13
8.10619e+12
9.98932e+11
1.08574e+11
1.88258e+10
4.50162e+10
5.43298e+11
4.49494e+12
1.76905e+15
6.89072e+13
7.72855e+10
1.67534e+10
1.10471e+09
9.80415e+13
1.57306e+12
1.35037e+19
5.74079e+18
1.49145e+18
5.9372e+16
1.81195e+16
8.46767e+15
6.84552e+14
2.04731e+14
6.98395e+12
1.28562e+12
5.94194e+13
2.14678e+14
7.61431e+15
1.5975e+16
3.56637e+16
2.19975e+18
7.98161e+18
10000
10000
7.16147e+17
2.99403e+15
1.87152e+10
2.86062e+15
7.53579e+17
3.20122e+12
3.22233e+12
2.61981e+16
3.74521e+13
1.90782e+15
2.34216e+10
2.45771e+11
2.0445e+14
1.57348e+11
5.03122e+09
1.53851e+10
3.22978e+11
1.45803e+17
5.89388e+16
4.76108e+15
6.45288e+10
9.87499e+12
1.16686e+15
10000
1.55127e+10
4.43024e+18
4.37553e+11
5.38812e+10
1.72087e+06
7.33219e+18
8.50435e+16
2.91359e+18
1.85559e+11
4.30559e+14
4.16179e+18
10000
3.73757e+17
4.00356e+15
1.49489e+17
5.87976e+14
5.2068e+13
3.02151e+14
9.28759e+16
1.22406e+15
1.7639e+15
1.56173e+14
5.32317e+09
1.64643e+12
9.11056e+10
3.7376e+13
5.11777e+11
6.36305e+08
1.1635e+12
1.53295e+13
1.74566e+11
1.73028e+13
9.62086e+09
1.58756e+12
2.83853e+13
1.55858e+10
5.8752e+10
3.81991e+09
5.84e+11
1.31885e+08
7.47154e+09
1.49312e+10
7.48496e+12
2.52075e+08
9.31006e+08
9.37065e+09
4.6053e+07
1.61827e+07
4.91136e+11
3.53302e+11
7.46455e+09
9.67507e+10
1.17035e+07
1.85266e+09
4.5261e+09
1.13279e+09
2.31707e+08
4.70803e+08
3.87129e+08
6.94996e+07
2.4453e+11
3.85768e+11
1.64435e+11
1.89212e+10
34589.6
3.39048e+09
1.70009e+08
4.27012e+10
87014.3
5.36562e+10
8.43024e+11
4.74739e+09
4.45386e+07
1.06247e+08
2.88296e+08
3.90237e+07
8.80487e+08
8.35728e+10
2.89956e+06
2.18887e+08
5.09236e+07