# vtk DataFile Version 3.0
2D-vertex
ASCII
DATASET UNSTRUCTURED_GRID

POINTS 448 float
-0.0075413 -2.39441 0
2.47844 -2.31255 0
2.91392 -1.39591 0
1.95476 -0.281596 0
-0.339862 -0.0114466 0
-1.13421 -1.44385 0
3.46368 -1.3905 0
4.08209 -0.568339 0
3.24952 0.968229 0
2.15459 0.705906 0
1.04032 1.98963 0
-0.655158 2.57795 0
-1.48774 1.35532 0
-1.67986 1.31832 0
-2.26339 -0.273221 0
-1.7999 -1.17717 0
4.65495 -0.758201 0
5.53781 0.0819025 0
3.80485 1.67096 0
3.49147 1.61253 0
2.69051 2.59896 0
1.57276 2.57478 0
1.13903 6.06244 0
0.136631 6.07315 0
-0.7039 4.30273 0
-2.02423 3.53336 0
-2.03453 1.69894 0
-3.36792 1.46457 0
-3.90572 0.497891 0
-3.63551 -0.222727 0
6.61773 0.0342334 0
7.29721 0.744979 0
7.18129 2.05999 0
5.04458 3.28413 0
5.56344 3.84712 0
3.26818 5.21681 0
2.61632 6.43835 0
1.63199 6.64982 0
0.719467 9.57006 0
-0.986913 9.62889 0
-0.700595 6.91219 0
-2.3892 6.09532 0
-3.42928 4.70674 0
-4.46227 4.78905 0
-5.21037 3.50226 0
-6.65239 3.25521 0
-6.96738 2.24028 0
-5.47183 0.8078 0
7.67092 2.69605 0
7.39451 3.71367 0
6.69873 4.13772 0
6.11112 6.18362 0
3.78791 7.41324 0
3.74679 8.16119 0
2.30883 9.66229 0
2.89541 10.3906 0
-2.02061 10.8943 0
-1.98904 10.2341 0
-3.20006 9.09175 0
-2.93826 7.09414 0
-4.6798 7.54077 0
-6.05407 6.35627 0
-8.03353 5.04326 0
-7.90801 4.47808 0
8.37439 4.10023 0
8.37471 4.10271 0
7.0768 6.14346 0
7.54992 7.36849 0
6.41724 8.5853 0
6.66748 9.28997 0
6.04367 10.212 0
5.93502 10.5563 0
-2.77227 13.1582 0
-2.96541 12.9801 0
-6.48054 10.8292 0
-5.80453 9.87108 0
-6.5286 8.71467 0
-6.41393 8.45128 0
-9.00698 5.63881 0
-8.85545 5.23503 0
9.91554 4.33934 0
10.2946 5.31491 0
9.59253 6.35538 0
10.7572 6.71207 0
10.584 8.27574 0
10.8476 9.05448 0
10.2298 13.9742 0
10.8632 16.5249 0
-9.58053 16.9486 0
-9.55903 16.6344 0
-10.4415 10.459 0
-10.1156 9.82003 0
-10.4602 9.23538 0
-9.71229 8.04858 0
-10.4824 6.82339 0
-10.041 5.78623 0
3.30324 -4.19765 0
4.53922 -3.70174 0
5.40486 -3.32949 0
7.84812 -1.83063 0
9.21395 -0.44348 0
10.6617 1.82909 0
10.7708 2.00517 0
11.5464 3.07327 0
12.4316 4.97909 0
12.6863 5.77414 0
13.048 9.34603 0
13.1198 17.21 0
-12.4152 17.9375 0
-12.8272 10.5355 0
-12.791 9.16146 0
-12.4747 6.53583 0
-11.6552 4.55447 0
-10.8235 3.41358 0
-10.2199 2.64324 0
-9.31004 1.24615 0
-7.41885 -0.951281 0
-5.37268 -2.41709 0
-3.29903 -3.4802 0
-0.323845 -4.41 0
12.9175 11.292 0
9.31546 11.1062 0
-12.8899 13.5614 0
-10.3413 13.8708 0
-0.489536 3.99864 0
0.899258 4.05496 0
-1.98463 6.02376 0
-1.35748 4.31868 0
4.60939 5.36736 0
5.04395 6.28563 0
0.420465 10.9867 0
0.210403 10.0704 0
-1.23857 8.16567 0
-2.55528 7.91228 0
6.11048 6.18603 0
5.40815 8.10764 0
4.44846 8.619 0
4.45395 9.80492 0
2.52534 11.199 0
2.5233 11.1976 0
-2.74269 11.2975 0
-4.29858 9.94331 0
-3.87201 9.16528 0
-4.77832 8.11927 0
1.12387 1.38711 0
-0.383249 0.43547 0
6.3695 2.32521 0
5.20739 0.792883 0
5.04255 3.28558 0
3.03883 4.13063 0
-9.30763 11.9435 0
-6.26188 11.4089 0
3.03634 4.13044 0
1.57199 4.85308 0
-9.66526 7.95202 0
-8.24506 7.26205 0
-1.17522 -1.46245 0
-1.69394 -4.11302 0
1.99048 29.0583 0
1.95602 30.8229 0
0.829888 -2.08179 0
0.998881 -0.65512 0
2.66308 8.58689 0
1.43044 7.52974 0
9.13452 10.5873 0
6.0748 10.2655 0
8.47296 22.5334 0
0.535943 12.6112 0
-3.07025 -0.506471 0
-3.86752 -3.21688 0
-4.66932 2.543 0
-5.57563 1.43136 0
-6.01585 -2.012 0
-4.87825 0.381874 0
0.433291 8.06318 0
-0.599943 7.61697 0
9.54106 6.16013 0
7.88773 5.43088 0
5.32727 -0.439076 0
6.9343 -2.49252 0
1.2361 -4.54512 0
1.35602 -2.5364 0
-6.53734 1.58526 0
-8.1636 -0.228045 0
-5.71177 5.2447 0
-7.03356 4.10744 0
7.47411 2.19248 0
9.8315 0.416594 0
-12.6889 7.9227 0
-9.71386 8.04662 0
13.0813 7.81857 0
11.0257 7.75825 0
-3.04865 3.77164 0
-3.97534 2.50251 0
-9.78661 2.02346 0
-7.03824 3.56484 0
-3.82531 6.94226 0
-4.62794 5.11126 0
-7.13749 7.3803 0
-6.72315 6.48901 0
8.57473 7.52084 0
8.84045 8.0898 0
-0.76573 12.4692 0
-0.675085 11.7429 0
12.9202 11.3017 0
10.5369 12.4833 0
10.2876 15.0728 0
2.38431 11.478 0
8.30953 9.23003 0
9.68663 10.0755 0
-7.71682 8.90383 0
-8.04636 9.77247 0
-2.1912 14.682 0
1.18599 13.8146 0
-10.1426 14.4928 0
-4.35013 13.023 0
9.68589 10.0779 0
12.9479 10.5494 0
-10.6162 16.0397 0
-12.7227 16.8187 0
-12.811 11.7101 0
-9.56323 11.5771 0
12.1495 20.0316 0
10.0408 18.3466 0
8.95269 11.5674 0
6.88917 11.6385 0
-9.56297 11.5746 0
-7.69226 10.6193 0
2.82607 14.4338 0
4.67948 13.0422 0
-4.78732 11.6992 0
-3.95653 10.8082 0
5.44636 12.8739 0
4.56429 11.3109 0
13.2142 13.1701 0
10.7655 13.1719 0
-2.86959 14.3418 0
-4.86728 14.0449 0
-3.35618 27.3599 0
0.322374 15.1784 0
-6.91192 12.1528 0
-4.83009 13.4336 0
-12.8244 12.5305 0
-9.78874 12.7244 0
6.6335 16.9917 0
8.59717 15.5775 0
-0.803598 13.9757 0
-0.495821 12.7252 0
-9.31285 20.6605 0
-11.6399 21.2126 0
1.41784 28.6809 0
2.71554 15.3878 0
-2.98677 16.708 0
-8.83553 21.2425 0
-10.742 15.0808 0
-12.9552 14.8357 0
-6.78082 15.9075 0
-6.43227 14.5744 0
-6.7532 12.6965 0
-7.58688 13.8913 0
13.3018 15.3193 0
10.9121 15.6603 0
-8.67966 22.9027 0
-10.3376 24.2906 0
6.60858 12.6419 0
5.44814 12.8721 0
10.1796 17.0657 0
8.55997 16.4332 0
4.45098 14.0092 0
7.07401 16.6759 0
-1.94176 15.754 0
-0.184634 16.0335 0
9.61203 26.8202 0
8.20953 25.5721 0
0.661057 15.1226 0
1.73441 15.9697 0
6.03363 26.8937 0
4.50333 16.2261 0
13.2588 14.2484 0
10.5257 14.4369 0
-8.49354 15.8415 0
-8.74515 14.8745 0
-9.65404 13.0315 0
-7.64969 13.5124 0
-9.11651 20.0507 0
-6.26486 17.4162 0
0.328721 29.1353 0
0.0837684 30.7 0
2.19078 13.7193 0
2.96851 12.335 0
-3.93042 16.0504 0
-4.04634 15.2152 0
-11.9577 19.9414 0
-9.67259 19.4429 0
0.27719 17.3974 0
0.0134551 17.2295 0
8.25702 13.8597 0
7.77576 14.6459 0
9.21491 12.2214 0
8.10217 13.4403 0
-9.16234 21.9676 0
-11.2505 22.4924 0
-2.42819 16.5957 0
-1.37978 17.7942 0
1.94713 16.9665 0
3.82934 17.1442 0
6.83411 14.6757 0
6.57103 15.1117 0
-7.03145 19.3108 0
-6.69123 19.5815 0
-9.1008 17.3477 0
-6.60271 16.8631 0
4.44578 16.0576 0
5.19342 15.0484 0
-7.15457 24.0077 0
-3.50549 18.1946 0
8.37118 28.1229 0
7.27007 26.8186 0
-4.83694 29.1161 0
-3.95195 27.3824 0
8.80766 18.5379 0
7.92841 16.9677 0
11.3915 22.3421 0
9.15274 21.8112 0
4.52235 18.5297 0
6.19966 19.6693 0
1.49111 19.3234 0
3.80541 18.8561 0
-0.0313537 25.5642 0
-2.0883 24.0649 0
-2.29743 22.5371 0
-3.63881 19.9976 0
-6.39178 16.3421 0
-4.22739 15.1582 0
-7.80151 23.0729 0
-7.15178 21.0281 0
5.52239 25.2441 0
6.86567 21.8394 0
-12.2182 18.7428 0
-9.34266 18.1543 0
-9.2358 18.284 0
-7.10513 18.4375 0
0.244958 19.3332 0
0.430881 19.1378 0
3.0658 28.5129 0
1.61353 22.6723 0
3.7076 30.6645 0
3.52623 28.8188 0
-7.24005 27.6957 0
-6.27362 25.8484 0
-5.37473 17.4723 0
-4.94658 18.2867 0
8.45426 19.1883 0
7.31271 18.7728 0
1.84127 17.1053 0
2.31996 18.2642 0
10.3953 17.7391 0
12.8394 18.3185 0
11.8618 20.6403 0
8.73505 19.0206 0
-5.5226 25.667 0
-3.37844 20.6745 0
-1.70975 18.7799 0
-3.00274 18.9201 0
3.07595 23.1808 0
3.68372 22.7842 0
-5.45533 19.3158 0
-5.00751 19.9694 0
4.59732 18.155 0
6.58279 17.5924 0
-0.538532 21.8747 0
0.495598 23.1966 0
1.43679 27.208 0
3.14652 27.0162 0
-2.64501 28.3401 0
-3.21054 29.8469 0
-1.27753 27.9726 0
-0.833931 25.6699 0
-8.78961 26.3185 0
-7.16666 25.1128 0
-1.33807 19.2526 0
-2.72465 20.8914 0
-5.64422 21.8972 0
-4.48676 21.9508 0
5.12202 27.4272 0
4.15782 26.5426 0
4.79542 21.3876 0
6.05365 22.239 0
7.69283 25.6732 0
6.62492 24.6579 0
10.6599 24.9007 0
8.78729 24.4154 0
-4.63152 26.2976 0
-2.58912 22.3918 0
5.80315 29.9266 0
4.81694 28.3703 0
2.35283 20.4726 0
3.74303 19.9377 0
-6.10005 28.4078 0
-4.99786 26.3203 0
0.365063 25.8832 0
3.18596 24.67 0
0.503532 21.0024 0
1.41242 21.4964 0
-6.75691 21.6123 0
-5.84862 21.5776 0
8.67825 20.5142 0
7.02029 20.6534 0
-0.403663 21.409 0
-1.65786 20.3179 0
11.6904 21.1623 0
8.72215 20.4617 0
-1.45241 24.2301 0
-0.0580672 22.8731 0
-4.06882 23.4592 0
-4.02046 23.477 0
-2.97912 25.0026 0
-3.65918 24.871 0
-9.60619 25.2916 0
-7.6463 23.7755 0
4.23959 25.2484 0
4.85138 24.892 0
0.386199 26.7358 0
-0.632977 28.131 0
-6.15847 23.5044 0
-5.23102 24.1981 0
-1.01853 28.2175 0
-1.58786 30.361 0
-2.56146 26.1421 0
-1.35938 26.3776 0
8.30073 23.4871 0
6.83913 23.6569 0
7.08885 29.1237 0
5.81644 27.3233 0
4.86219 23.4729 0
5.9853 22.9307 0
2.27145 21.0213 0
3.6884 21.9606 0
2.38129 25.2057 0
2.44129 26.5913 0
4.84023 20.6945 0
6.18923 20.0243 0
1.27951 23.0924 0
1.85047 24.9631 0
11.0698 23.5629 0
8.63796 23.0215 0
-1.31615 27.2201 0
0.376231 26.3337 0

CELLS 672 2016
2 160 0
2 1 2
2 2 3
2 161 4
2 4 5
2 5 0
2 2 6
2 6 7
2 7 8
2 8 9
2 3 9
2 9 144
2 10 11
2 11 12
2 145 4
2 12 13
2 13 14
2 15 14
2 5 156
2 7 16
2 17 178
2 147 17
2 19 18
2 19 8
2 20 19
2 21 20
2 10 21
2 153 125
2 23 22
2 24 23
2 24 124
2 127 24
2 26 25
2 26 13
2 27 26
2 28 27
2 29 28
2 14 168
2 30 17
2 30 31
2 32 31
2 32 146
2 18 33
2 33 148
2 128 35
2 20 152
2 35 36
2 37 36
2 22 37
2 37 163
2 38 131
2 175 40
2 40 23
2 126 40
2 42 41
2 25 192
2 43 42
2 43 44
2 193 27
2 45 44
2 46 45
2 47 171
2 173 47
2 48 186
2 48 49
2 49 50
2 34 50
2 50 51
2 52 129
2 36 52
2 52 53
2 53 162
2 54 38
2 55 54
2 139 55
2 57 56
2 39 57
2 58 57
2 59 133
2 41 59
2 59 196
2 61 60
2 197 43
2 199 61
2 62 63
2 195 185
2 49 64
2 64 65
2 177 65
2 51 134
2 67 66
2 68 67
2 53 136
2 69 68
2 70 69
2 55 137
2 165 70
2 233 71
2 73 72
2 140 56
2 215 73
2 74 75
2 58 142
2 76 75
2 77 76
2 60 143
2 77 198
2 78 79
2 79 62
2 65 80
2 80 81
2 81 176
2 67 200
2 82 83
2 83 191
2 69 208
2 84 85
2 164 216
2 71 225
2 86 279
2 158 250
2 88 89
2 290 252
2 254 214
2 90 91
2 91 211
2 91 92
2 92 93
2 93 210
2 189 93
2 94 95
2 95 78
2 96 1
2 96 97
2 97 6
2 97 98
2 16 98
2 179 99
2 99 30
2 31 100
2 187 101
2 101 48
2 101 102
2 102 64
2 102 103
2 103 80
2 81 104
2 104 105
2 83 105
2 105 190
2 85 106
2 217 120
2 87 107
2 108 88
2 255 122
2 109 90
2 109 110
2 92 110
2 110 188
2 111 94
2 95 112
2 112 113
2 113 79
2 113 114
2 63 114
2 114 194
2 115 46
2 116 47
2 116 172
2 117 29
2 169 118
2 118 15
2 157 119
2 0 119
2 119 180
2 99 100
2 103 104
2 249 292
2 111 112
2 183 116
2 120 204
2 121 224
2 120 121
2 122 242
2 123 282
2 122 123
2 124 11
2 125 21
2 124 125
2 41 126
2 127 25
2 126 127
2 34 128
2 129 51
2 128 129
2 203 130
2 131 39
2 130 131
2 39 132
2 133 58
2 132 133
2 134 66
2 135 68
2 134 135
2 136 135
2 137 70
2 136 137
2 207 138
2 130 139
2 139 138
2 140 73
2 75 141
2 231 140
2 142 141
2 143 77
2 142 143
2 144 10
2 145 12
2 144 145
2 146 33
2 147 18
2 146 147
2 148 34
2 149 35
2 148 149
2 221 150
2 151 74
2 150 240
2 152 149
2 153 22
2 152 153
2 94 154
2 155 78
2 154 155
2 156 15
2 157 118
2 156 157
2 266 87
2 357 222
2 159 158
2 181 160
2 161 3
2 160 161
2 162 54
2 163 174
2 162 163
2 164 121
2 71 165
2 165 164
2 445 166
2 247 167
2 337 166
2 168 29
2 169 117
2 168 169
2 44 170
2 171 182
2 170 171
2 172 117
2 173 28
2 172 173
2 174 38
2 175 132
2 174 175
2 176 82
2 177 66
2 176 177
2 178 16
2 179 98
2 178 179
2 180 96
2 181 1
2 180 181
2 182 46
2 183 115
2 182 183
2 61 184
2 185 63
2 184 185
2 186 32
2 187 100
2 186 187
2 188 111
2 189 154
2 188 189
2 190 106
2 191 84
2 190 191
2 192 42
2 193 170
2 192 193
2 194 115
2 195 45
2 194 195
2 196 60
2 197 184
2 196 197
2 198 155
2 199 62
2 198 199
2 200 82
2 201 84
2 200 201
2 72 202
2 203 56
2 202 203
2 204 234
2 205 235
2 205 204
2 261 206
2 167 207
2 206 245
2 208 201
2 209 85
2 208 209
2 210 76
2 227 74
2 210 211
2 236 72
2 213 167
2 239 274
2 214 123
2 230 215
2 241 237
2 216 209
2 217 106
2 216 217
2 89 218
2 219 108
2 218 219
2 220 109
2 221 226
2 220 221
2 222 358
2 320 223
2 223 222
2 224 298
2 264 225
2 225 224
2 226 90
2 227 211
2 226 227
2 228 288
2 289 229
2 228 268
2 151 230
2 231 141
2 230 231
2 229 232
2 233 138
2 265 233
2 234 278
2 235 86
2 235 234
2 236 212
2 257 237
2 291 236
2 248 284
2 246 239
2 271 295
2 240 151
2 241 215
2 240 258
2 242 220
2 243 150
2 242 243
2 277 244
2 232 306
2 245 267
2 212 246
2 247 202
2 246 247
2 253 248
2 301 249
2 249 248
2 374 238
2 251 228
2 294 354
2 252 302
2 300 253
2 335 309
2 218 254
2 255 219
2 254 255
2 280 256
2 259 281
2 256 257
2 258 241
2 259 257
2 283 259
2 260 107
2 261 87
2 260 261
2 238 319
2 375 318
2 263 262
2 299 264
2 232 265
2 265 264
2 223 356
2 244 269
2 267 266
2 268 229
2 321 267
2 313 307
2 212 270
2 271 239
2 270 271
2 272 316
2 273 388
2 272 273
2 274 213
2 275 251
2 274 275
2 433 276
2 277 312
2 336 276
2 278 260
2 279 206
2 278 279
2 89 280
2 281 214
2 280 281
2 282 243
2 283 258
2 282 283
2 284 293
2 311 285
2 308 284
2 250 286
2 287 159
2 286 287
2 288 213
2 289 207
2 288 289
2 285 350
2 333 291
2 291 290
2 292 338
2 293 340
2 293 292
2 345 403
2 330 370
2 295 294
2 86 296
2 297 245
2 296 297
2 298 205
2 299 296
2 298 299
2 262 300
2 301 263
2 300 301
2 302 270
2 303 295
2 302 303
2 304 275
2 305 277
2 304 305
2 306 297
2 307 269
2 306 307
2 308 341
2 315 252
2 309 308
2 88 310
2 311 332
2 310 311
2 312 251
2 313 268
2 312 313
2 419 314
2 309 366
2 315 363
2 316 432
2 276 317
2 317 316
2 318 398
2 319 392
2 319 318
2 359 320
2 269 321
2 321 320
2 322 444
2 166 323
2 323 322
2 324 368
2 369 353
2 324 325
2 343 326
2 327 324
2 326 355
2 372 250
2 416 329
2 377 328
2 330 329
2 314 424
2 361 381
2 332 256
2 333 237
2 332 333
2 262 334
2 335 253
2 334 404
2 336 421
2 441 407
2 435 431
2 338 108
2 339 310
2 338 339
2 340 339
2 341 285
2 340 341
2 303 362
2 343 294
2 342 343
2 344 158
2 328 371
2 344 373
2 346 159
2 347 344
2 346 347
2 348 378
2 349 379
2 348 349
2 350 290
2 351 315
2 350 351
2 411 352
2 325 353
2 353 352
2 354 304
2 355 327
2 354 355
2 356 266
2 357 107
2 356 357
2 358 410
2 352 359
2 359 358
2 360 349
2 331 361
2 425 360
2 362 380
2 331 363
2 363 362
2 345 364
2 437 365
2 365 364
2 366 351
2 367 331
2 366 367
2 368 305
2 369 244
2 368 369
2 402 408
2 371 442
2 413 371
2 447 422
2 420 385
2 439 372
2 426 376
2 427 375
2 375 374
2 376 374
2 412 377
2 376 446
2 378 418
2 379 314
2 379 378
2 380 342
2 393 330
2 409 380
2 405 382
2 383 361
2 382 383
2 395 384
2 385 373
2 384 385
2 386 440
2 337 387
2 387 386
2 388 317
2 389 336
2 388 389
2 390 272
2 391 273
2 390 391
2 392 399
2 381 393
2 417 415
2 394 346
2 395 347
2 394 395
2 326 396
2 397 327
2 396 397
2 398 348
2 399 360
2 398 399
2 328 400
2 364 401
2 443 400
2 342 402
2 403 436
2 402 403
2 404 335
2 405 367
2 404 405
2 323 406
2 407 337
2 406 407
2 408 370
2 409 381
2 408 409
2 410 322
2 411 406
2 410 411
2 329 412
2 413 370
2 412 413
2 383 414
2 415 393
2 414 415
2 238 428
2 417 392
2 416 417
2 418 263
2 419 334
2 418 419
2 401 420
2 421 434
2 420 421
2 372 422
2 423 286
2 422 423
2 424 382
2 425 414
2 424 425
2 423 426
2 427 287
2 426 427
2 428 416
2 429 377
2 428 429
2 391 430
2 431 389
2 430 431
2 432 394
2 433 384
2 432 433
2 434 365
2 435 387
2 434 435
2 436 396
2 437 386
2 436 437
2 401 438
2 439 373
2 438 439
2 440 397
2 441 325
2 440 441
2 442 345
2 443 438
2 442 443
2 444 390
2 445 430
2 444 445
2 446 429
2 447 400
2 446 447

CELL_TYPES 672
3
3
3
3
3
3
3
3
3
3
3
3
3
3
3
3
3
3
3
3
3
3
3
3
3
3
3
3
3
3
3
3
3
3
3
3
3
3
3
3
3
3
3
3
3
3
3
3
3
3
3
3
3
3
3
3
3
3
3
3
3
3
3
3
3
3
3
3
3
3
3
3
3
3
3
3
3
3
3
3
3
3
3
3
3
3
3
3
3
3
3
3
3
3
3
3
3
3
3
3
3
3
3
3
3
3
3
3
3
3
3
3
3
3
3
3
3
3
3
3
3
3
3
3
3
3
3
3
3
3
3
3
3
3
3
3
3
3
3
3
3
3
3
3
3
3
3
3
3
3
3
3
3
3
3
3
3
3
3
3
3
3
3
3
3
3
3
3
3
3
3
3
3
3
3
3
3
3
3
3
3
3
3
3
3
3
3
3
3
3
3
3
3
3
3
3
3
3
3
3
3
3
3
3
3
3
3
3
3
3
3
3
3
3
3
3
3
3
3
3
3
3
3
3
3
3
3
3
3
3
3
3
3
3
3
3
3
3
3
3
3
3
3
3
3
3
3
3
3
3
3
3
3
3
3
3
3
3
3
3
3
3
3
3
3
3
3
3
3
3
3
3
3
3
3
3
3
3
3
3
3
3
3
3
3
3
3
3
3
3
3
3
3
3
3
3
3
3
3
3
3
3
3
3
3
3
3
3
3
3
3
3
3
3
3
3
3
3
3
3
3
3
3
3
3
3
3
3
3
3
3
3
3
3
3
3
3
3
3
3
3
3
3
3
3
3
3
3
3
3
3
3
3
3
3
3
3
3
3
3
3
3
3
3
3
3
3
3
3
3
3
3
3
3
3
3
3
3
3
3
3
3
3
3
3
3
3
3
3
3
3
3
3
3
3
3
3
3
3
3
3
3
3
3
3
3
3
3
3
3
3
3
3
3
3
3
3
3
3
3
3
3
3
3
3
3
3
3
3
3
3
3
3
3
3
3
3
3
3
3
3
3
3
3
3
3
3
3
3
3
3
3
3
3
3
3
3
3
3
3
3
3
3
3
3
3
3
3
3
3
3
3
3
3
3
3
3
3
3
3
3
3
3
3
3
3
3
3
3
3
3
3
3
3
3
3
3
3
3
3
3
3
3
3
3
3
3
3
3
3
3
3
3
3
3
3
3
3
3
3
3
3
3
3
3
3
3
3
3
3
3
3
3
3
3
3
3
3
3
3
3
3
3
3
3
3
3
3
3
3
3
3
3
3
3
3
3
3
3
3
3
3
3
3
3
3
3
3
3
3
3
3
3
3
3
3
3
3
3
3
3
3
3
3
3
3
3
3
3
3
3
3
3
3
3
3
3
3
3
3
3
3
3
3
3
3
3
3
3
3
3
3
3
3
3
3
3
3
3
3
3
3
3
3
3
3
3
3
3
3
3
3
3
3
3
3
3
3
3
3
3
3
3
3
3
3
3
3
3
3
3
3
3
3
3
3
3
3
3
3
3
3
3
3
3
3
3
3
3
3
3
3

CELL_DATA 672
SCALARS current_Length float
LOOKUP_TABLE default
0.893878
1.01483
1.47026
1.48545
1.63791
1.4741
0.549789
1.02878
1.74763
1.12591
1.00752
1.23549
1.79465
1.47919
0.449018
0.195659
1.69514
1.01585
0.0450293
0.603504
0.561913
0.784011
0.318783
0.688233
1.27066
1.11801
0.791125
1.04382
1.00246
1.95981
0.372055
0.653774
1.83445
0.520252
1.35383
1.10621
0.769612
0.839892
1.08097
0.983284
1.32011
0.854021
2.03452
0.00249725
1.34963
1.57004
1.38458
1.0068
0.766829
0.902701
0.713816
0.711935
1.1853
1.56143
1.73491
1.05176
1.03627
1.48845
1.20262
1.46303
1.06268
0.632145
0.730581
0.540663
1.0545
0.814819
1.17189
2.12861
1.68794
1.52415
0.749076
1.16432
1.59204
0.935119
0.888678
0.660936
1.17069
1.66477
0.903346
1.13979
0.899953
1.8143
0.362312
0.682125
0.578953
0.542617
1.05337
0.00250137
1.41463
0.00249216
1.31322
1.66241
0.837811
0.747779
1.11324
1.66494
0.0618566
1.56468
0.262762
0.827043
1.38539
1.1726
0.675966
1.36439
0.287264
0.586831
1.2925
0.43128
0.843994
1.55889
1.04663
1.13236
1.03607
1.2181
1.08007
1.64314
0.822134
0.750634
1.44272
0.549182
0.685813
0.314929
1.15018
0.839606
0.717314
2.06976
0.678651
1.4028
2.17103
0.00251658
1.12719
1.04445
2.05764
1.33176
2.54925
0.942282
2.67841
1.12835
2.23418
2.25529
1.63843
3.11394
0.20709
3.18306
1.32005
2.06465
2.1632
0.834866
2.14502
2.08224
2.21964
0.743248
2.35827
3.00218
1.27597
2.38687
1.3745
2.33199
1.24296
2.01296
2.03048
1.41187
2.68156
0.978629
2.95151
0.756209
2.54487
2.62398
1.75883
2.79875
0.626506
2.74797
1.40191
2.04026
1.56578
1.94671
2.10134
1.31033
2.14416
1.03814
0.0100565
0.586774
3.60687
1.0329
1.08474
2.56731
1.43031
1.62621
1.38994
0.410852
1.03018
1.81676
1.79481
1.07203
1.0159
1.33121
1.27614
0.940038
1.4847
1.34421
1.34087
0.967258
1.11644
2.04594
1.08742
1.64102
1.18593
0.312552
2.11338
0.00250544
1.69723
1.50768
1.30877
0.887303
1.66896
1.38402
0.608285
1.43737
1.78242
1.63552
1.65473
1.92316
0.765938
1.11013
2.17462
0.446809
0.619599
2.40483
0.00250059
1.28453
1.63295
1.39338
1.79316
1.57893
0.686738
1.72534
2.70085
0.871689
1.84672
1.76493
0.695328
1.02626
1.43665
1.13224
1.13086
1.62388
0.549577
0.322716
3.0766
0.515215
1.03804
1.75074
0.632479
1.70446
2.82523
1.10132
0.973949
1.43427
0.760118
0.979426
2.65043
1.53382
0.84197
1.12546
0.201921
1.07952
1.80702
0.744213
1.74347
2.60752
2.09614
1.14453
2.01229
0.783567
1.8675
2.43574
1.16307
0.94975
1.7437
0.321392
1.05882
2.95145
1.40332
0.106351
2.97765
1.52782
0.680332
2.05655
1.0096
0.695164
1.57145
0.911773
0.494732
3.15109
1.04326
1.09201
1.99919
1.11386
1.95122
0.982891
1.54732
1.75345
0.627958
2.12154
1.59082
0.731905
1.89142
0.725611
2.66011
0.857452
2.16813
1.76413
1.25778
1.54607
1.61593
1.20318
1.22975
0.929047
1.18757
1.36767
0.343255
0.652934
1.39413
0.61246
0.0025113
1.20753
3.29591
1.21294
1.16027
2.24594
1.17471
0.00251599
3.25051
0.673329
1.24787
2.69926
0.704604
1.04193
2.06474
1.41997
0.917928
2.10048
0.956139
1.85138
1.67947
1.50285
0.930028
1.21826
0.785136
2.04202
1.79406
1.07916
0.964771
2.4487
0.75894
1.65213
1.46545
0.640599
1.64754
1.21229
0.987877
0.631612
0.566353
0.820565
0.917154
3.04184
2.26354
2.27429
0.856533
1.55703
0.372012
1.28779
0.752665
1.33769
2.39169
1.21102
0.960362
1.59113
0.569748
0.795388
1.51819
0.967091
1.99661
2.22679
1.71399
1.51931
1.37791
2.05954
1.34154
0.384114
1.89942
0.866027
2.41388
0.596185
1.78306
2.16223
1.6936
0.0025129
1.18306
0.703348
0.542007
1.73874
0.993616
0.827332
1.37906
1.10061
0.994049
1.77921
1.7991
0.526506
1.87745
1.40945
1.14074
1.36738
0.481335
0.178078
1.72706
1.07181
0.679055
2.73962
1.32813
1.44869
0.999173
0.335386
1.21219
2.06122
0.823843
0.648115
2.21245
1.18012
1.87628
1.58377
1.00929
1.03719
1.5878
0.891899
0.189806
0.843241
1.22658
1.23844
2.33884
1.19294
1.87949
0.312668
1.97607
1.242
0.921812
1.34766
0.44708
1.65045
1.05232
2.0167
2.15313
0.972167
1.50333
1.59229
1.01922
1.13894
1.89058
0.942119
1.64302
0.509249
0.876441
1.57447
0.434751
0.624062
0.562059
2.54467
1.85536
1.2772
1.25594
0.543774
1.26414
0.88265
1.62662
1.23873
1.70698
1.44818
1.28009
1.94656
0.488081
0.902857
1.79964
1.2625
0.991817
2.30088
0.382177
1.38786
2.02785
1.07636
0.787744
1.34494
1.473
1.29342
0.809515
1.54201
1.11604
0.688826
0.583301
1.2841
2.46701
0.894498
1.69734
1.79571
0.757756
1.04237
1.12085
0.829072
0.842068
2.93517
0.16805
1.32255
2.13619
1.0395
1.74714
0.269766
1.20573
2.42553
1.49884
1.75873
0.552825
1.85454
2.07311
1.15702
2.0848
2.02673
1.44403
0.92009
1.30126
1.42921
1.21482
0.174505
1.59902
1.25395
0.707084
1.14345
2.51183
0.549403
0.327106
3.52136
0.772617
0.725201
1.49756
0.601358
1.25131
1.30056
1.5483
0.823539
0.725735
1.14802
1.36899
0.792296
1.26939
0.602891
2.06362
0.994152
0.790807
0.641231
0.852829
1.29678
1.17868
0.356467
1.70215
1.60945
1.41601
1.56705
1.5971
1.31197
1.10516
2.02181
1.58508
0.325902
1.11219
0.379334
1.69037
1.1587
0.991254
1.11671
1.30851
0.69452
0.90505
1.51925
1.22087
1.24869
1.47358
2.18689
1.29297
1.93445
0.367043
1.50648
1.44007
2.22166
1.36641
1.84245
1.4364
1.08341
1.48956
1.34411
0.837907
2.36059
0.508871
1.49329
1.74732
1.68908
0.981675
1.03446
0.705116
1.81491
0.908957
1.38109
1.19594
1.6638
0.484835
1.21119
1.66242
1.21702
0.0683865
3.04979
0.657003
1.10798
1.94566
1.56526
1.79622
0.051509
1.45418
1.72643
0.692688
1.23978
0.719549
2.47784
1.20193
1.41916
0.707993
1.15183
1.3905
1.7278
1.68743
1.37719
1.15822
0.395141
1.70567
2.21775
1.2136
0.881425
1.22493
1.04805
1.02365
1.47142
1.51581
0.702142
2.20465
1.36498
0.695063
1.24715
0.554624
1.24655
1.70006
0.966686
0.823331
1.3869
1.33288
0.355059
1.50634
0.536698
0.583641
1.95593
1.39922
0.574942
2.49132
3.2918
3.34157
0

SCALARS edge_force float
LOOKUP_TABLE default
0.5
0.5
0.5
0.5
0.5
0.5
0.5
0.5
0.5
0.5
0.5
0.5
0.5
0.5
0.5
0.5
0.5
0.5
0.5
0.5
0.5
0.5
0.5
0.5
0.5
0.5
0.5
0.5
0.5
0.5
0.5
0.5
0.5
0.5
0.5
0.5
0.5
0.5
0.5
0.5
0.5
0.5
0.5
0.5
0.5
0.5
0.5
0.5
0.5
0.5
0.5
0.5
0.5
0.5
0.5
0.5
0.5
0.5
0.5
0.5
0.5
0.5
0.5
0.5
0.5
0.5
0.5
0.5
0.5
0.5
0.5
0.5
0.5
0.5
0.5
0.5
0.5
0.5
0.5
0.5
0.5
0.5
0.5
0.5
0.5
0.5
0.5
0.5
0.5
0.5
0.5
0.5
0.5
0.5
0.5
0.5
0.5
0.5
0.5
0.5
0.5
0.5
0.5
0.5
0.5
0.5
0.5
0.5
0.5
0.5
0.5
0.5
0.5
0.5
0.5
0.5
0.5
0.5
0.5
0.5
0.5
0.5
0.5
0.5
0.5
0.5
0.5
0.5
0.5
0.5
0.5
0.5
0.5
2
0.5
2
0.5
2
0.5
0.5
2
0.5
2
0.5
2
0.5
0.5
2
0.5
2
0.5
2
0.5
0.5
2
0.5
2
0.5
2
0.5
0.5
2
0.5
2
0.5
2
0.5
0.5
2
0.5
2
0.5
2
0.5
2
2
2
2
2
2
2
0.5
0.5
2
0.5
0.5
0.5
0.5
0.5
0.5
0.5
0.5
0.5
0.5
0.5
0.5
0.5
0.5
0.5
0.5
0.5
0.5
0.5
0.5
0.5
0.5
0.5
0.5
0.5
0.5
0.5
0.5
0.5
0.5
0.5
0.5
0.5
0.5
0.5
0.5
0.5
0.5
0.5
0.5
0.5
0.5
0.5
0.5
0.5
0.5
0.5
0.5
0.5
0.5
0.5
2
0.5
0.5
2
0.5
0.5
0.5
0.5
0.5
0.5
0.5
0.5
0.5
0.5
0.5
0.5
0.5
0.5
2
0.5
0.5
0.5
0.5
2
0.5
0.5
0.5
0.5
0.5
0.5
0.5
0.5
0.5
2
0.5
2
0.5
0.5
0.5
2
0.5
0.5
0.5
0.5
0.5
2
0.5
2
0.5
0.5
2
0.5
0.5
0.5
0.5
0.5
2
0.5
0.5
0.5
0.5
0.5
0.5
0.5
0.5
0.5
0.5
0.5
0.5
0.5
0.5
2
0.5
0.5
0.5
0.5
0.5
0.5
0.5
0.5
0.5
0.5
0.5
0.5
0.5
0.5
0.5
0.5
0.5
0.5
2
0.5
0.5
2
0.5
2
0.5
0.5
2
0.5
0.5
0.5
0.5
0.5
0.5
0.5
0.5
0.5
0.5
0.5
0.5
0.5
0.5
0.5
0.5
0.5
2
0.5
0.5
0.5
0.5
0.5
0.5
0.5
0.5
0.5
0.5
0.5
2
0.5
0.5
0.5
0.5
0.5
0.5
0.5
0.5
0.5
2
0.5
0.5
0.5
0.5
0.5
0.5
0.5
0.5
2
0.5
0.5
0.5
0.5
0.5
0.5
0.5
2
0.5
0.5
0.5
2
0.5
0.5
0.5
0.5
0.5
0.5
0.5
0.5
0.5
0.5
0.5
0.5
0.5
2
0.5
0.5
0.5
0.5
0.5
0.5
0.5
0.5
2
0.5
0.5
0.5
0.5
0.5
0.5
0.5
0.5
0.5
0.5
0.5
0.5
2
0.5
0.5
0.5
0.5
0.5
0.5
0.5
2
0.5
0.5
0.5
0.5
0.5
0.5
0.5
0.5
0.5
0.5
0.5
0.5
2
0.5
0.5
0.5
0.5
0.5
0.5
0.5
0.5
0.5
0.5
0.5
0.5
0.5
0.5
0.5
0.5
0.5
0.5
0.5
0.5
0.5
0.5
2
0.5
0.5
2
0.5
0.5
0.5
0.5
0.5
2
0.5
0.5
0.5
0.5
0.5
0.5
0.5
0.5
0.5
0.5
0.5
0.5
0.5
0.5
0.5
0.5
0.5
0.5
0.5
0.5
0.5
0.5
0.5
2
0.5
0.5
0.5
0.5
0.5
0.5
0.5
0.5
0.5
0.5
0.5
2
0.5
0.5
2
0.5
0.5
0.5
0.5
0.5
0.5
0.5
0.5
0.5
0.5
0.5
0.5
2
0.5
2
0.5
0.5
0.5
0.5
0.5
0.5
0.5
0.5
0.5
0.5
0.5
0.5
0.5
0.5
0.5
0.5
0.5
0.5
0.5
0.5
0.5
0.5
0.5
0.5
2
0.5
0.5
0.5
0.5
2
0.5
0.5
0.5
0.5
0.5
0.5
0.5
0.5
0.5
0.5
0.5
0.5
0.5
0.5
0.5
0.5
0.5
2
0.5
0.5
0.5
0.5
0.5
2
0.5
0.5
0.5
0.5
0.5
2
0.5
0.5
0.5
0.5
0.5
0.5
0.5
0.5
0.5
0.5
0.5
0.5
0.5
0.5
0.5
0.5
0.5
2
0.5
0.5
0.5
0.5
0.5
0.5
0.5
0.5
0.5
0.5
0.5
2
0.5
0.5
0.5
0.5
0.5
0.5
0.5
0.5
0.5
0.5
0.5
0.5
2
0.5
0.5
0.5
0.5
0.5
0.5
0.5
2
0.5
0.5
0.5
0.5
0.5
0.5
0.5
0.5
0.5
0.5
0.5
0.5
0.5
0.5
0.5
0.5
0.5
2
0.5
0.5
0
0
0
