# vtk DataFile Version 2.0
2D-vertex
ASCII
DATASET UNSTRUCTURED_GRID
POINTS 1822 float
0.882975 -6.1979 0
3.33408 -5.92194 0
3.69598 -4.96537 0
2.64321 -3.92743 0
0.366442 -3.8417 0
-0.313428 -5.3448 0
4.22783 -4.91629 0
4.77716 -4.04532 0
3.80506 -2.56211 0
2.76373 -2.90642 0
1.55556 -1.68343 0
-0.14738 -1.24992 0
-0.878938 -2.5428 0
-1.03752 -2.58619 0
-1.51193 -4.26014 0
-0.981241 -5.12931 0
5.35277 -4.18518 0
6.14348 -3.27809 0
4.26671 -1.80363 0
3.99526 -1.87913 0
3.09407 -0.947951 0
2.02737 -1.06476 0
1.27693 2.53879 0
0.424841 2.49085 0
-0.3466 0.591448 0
-1.53516 -0.348701 0
-1.40529 -2.24464 0
-2.69285 -2.56757 0
-3.17781 -3.60603 0
-2.85916 -4.30799 0
7.21211 -3.23313 0
7.81489 -2.48368 0
7.59393 -1.17952 0
5.34738 -0.0876279 0
5.79944 0.507716 0
3.41366 1.76486 0
2.6113 3.02915 0
1.72388 3.16061 0
0.723155 6.33925 0
-0.853564 6.33739 0
-0.46675 3.27611 0
-1.94438 2.29716 0
-2.95844 0.727019 0
-3.92001 0.73929 0
-4.62303 -0.679888 0
-6.02729 -1.01873 0
-6.28812 -2.08226 0
-4.73556 -3.40629 0
8.00114 -0.529254 0
7.62637 0.490661 0
6.86483 0.880935 0
6.05548 2.9174 0
3.67141 4.02856 0
3.57131 4.90558 0
2.07963 6.49379 0
2.59471 7.2145 0
-1.83807 7.70669 0
-1.71657 6.7677 0
-2.93777 5.38961 0
-2.56389 3.24296 0
-4.20136 3.51488 0
-5.55837 2.17229 0
-7.44606 0.65037 0
-7.29197 0.114454 0
8.52872 0.937841 0
8.52863 0.94034 0
6.96943 2.93229 0
7.35494 4.15741 0
6.03359 5.37636 0
6.21565 6.07489 0
5.36761 7.06702 0
5.05824 7.59382 0
-2.5586 10.0172 0
-2.83411 9.63252 0
-5.95502 6.62864 0
-5.27712 5.85602 0
-5.98128 4.46679 0
-5.89448 4.30168 0
-8.43882 1.14958 0
-8.27908 0.790749 0
10.0419 1.31254 0
10.3194 2.28908 0
9.48222 3.23985 0
10.6202 3.71377 0
10.2459 5.23176 0
10.4015 5.95733 0
9.33662 10.5578 0
10.1936 12.6903 0
-9.45292 11.6381 0
-9.45277 11.6356 0
-9.91615 5.74271 0
-9.61358 5.21848 0
-9.94843 4.57977 0
-9.18769 3.49077 0
-9.97327 2.22008 0
-9.49255 1.23826 0
4.3149 -7.74009 0
5.50156 -7.14352 0
6.32683 -6.70154 0
8.6162 -5.00413 0
9.84657 -3.50915 0
11.0737 -1.10984 0
11.1637 -0.925504 0
11.816 0.190609 0
12.5015 2.16213 0
12.6706 2.96862 0
12.6462 6.50952 0
12.7358 13.3006 0
-13.0209 12.1263 0
-12.4845 5.68006 0
-12.3869 4.38751 0
-11.9728 1.83214 0
-11.0616 -0.0961092 0
-10.1742 -1.18265 0
-9.54481 -1.8988 0
-8.58745 -3.21364 0
-6.5822 -5.29276 0
-4.4523 -6.62435 0
-2.30917 -7.54297 0
0.727131 -8.24455 0
12.4139 8.0096 0
8.33655 7.96216 0
-12.7634 8.19433 0
-9.87662 9.00908 0
-0.0851912 0.262924 0
1.20895 0.406967 0
-1.68916 2.27317 0
-0.882016 0.565918 0
4.66411 2.01443 0
5.0295 2.95218 0
0.378915 7.95448 0
0.188906 6.81173 0
-1.01189 4.61422 0
-2.18593 4.28536 0
6.05443 2.91965 0
5.13412 4.86256 0
4.13936 5.32293 0
4.09406 6.70257 0
2.02141 8.25207 0
2.01954 8.25041 0
-2.2951 7.90046 0
-3.84859 6.06557 0
-3.39409 5.39246 0
-4.33906 4.0988 0
1.6971 -2.31721 0
0.283308 -3.36836 0
6.76291 -0.971754 0
5.73443 -2.56068 0
5.3453 -0.0862446 0
3.29395 0.641125 0
-8.79057 7.39748 0
-5.77758 7.32998 0
3.29145 0.641078 0
1.8359 1.26235 0
-9.1937 3.4236 0
-7.77319 2.83756 0
-0.345824 -5.36279 0
-0.660357 -8.05519 0
14.064 27.8851 0
17.2539 26.5694 0
1.68453 -5.82285 0
1.7385 -4.36948 0
2.56369 5.24733 0
1.42703 4.18435 0
8.18778 7.49059 0
5.36766 7.06953 0
7.84931 18.3781 0
-0.179547 9.93667 0
-2.28712 -4.54745 0
-2.8962 -7.32022 0
-4.02531 -1.58554 0
-4.87813 -2.78812 0
-5.11739 -6.26352 0
-4.12938 -3.78553 0
0.493841 4.62063 0
-0.402229 4.16022 0
9.45743 3.08789 0
7.90752 2.22296 0
5.9798 -3.81767 0
7.77549 -5.73511 0
2.28745 -8.25464 0
2.24431 -6.23313 0
-5.83196 -2.69588 0
-7.36376 -4.61845 0
-5.13213 1.08309 0
-6.42396 -0.191524 0
7.85612 -1.03421 0
10.3824 -2.59711 0
-12.2446 3.22091 0
-9.20992 3.4527 0
12.843 5.02919 0
10.7706 4.7409 0
-2.50614 -0.196669 0
-3.37271 -1.57698 0
-9.10016 -2.46757 0
-6.39637 -0.756658 0
-3.38763 3.02795 0
-4.09303 1.02866 0
-6.6222 3.04351 0
-6.18218 2.24827 0
8.30851 4.37038 0
8.49273 4.86837 0
-0.930871 9.75404 0
-0.653868 8.58555 0
12.4179 8.01887 0
9.70014 9.16297 0
9.44257 11.4425 0
1.66961 8.85201 0
7.82033 6.11139 0
8.99253 6.87755 0
-7.12565 4.54805 0
-7.47794 5.29967 0
-2.36681 12.0888 0
0.528769 11.2898 0
-9.80818 9.51319 0
-4.02526 9.44363 0
8.99108 6.87961 0
12.46 7.54217 0
-10.5743 10.675 0
-13.0969 11.1392 0
-12.5411 6.6799 0
-9.0569 6.94756 0
11.976 16.0121 0
9.50045 14.1413 0
7.97922 8.40179 0
5.8469 8.49216 0
-9.05694 6.94504 0
-7.17573 6.27183 0
1.90445 11.8594 0
3.69391 10.2396 0
-4.29802 7.82535 0
-3.53589 7.19878 0
4.38441 10.0163 0
3.55669 8.40837 0
12.6674 9.72656 0
9.8785 9.71401 0
-2.98138 11.6398 0
-4.44473 10.408 0
-13.2259 23.4798 0
-0.188619 12.9534 0
-6.36612 7.86523 0
-4.30692 9.63229 0
-12.62 7.40986 0
-9.24176 7.98653 0
5.19911 14.188 0
7.52163 12.1883 0
-1.35391 11.6945 0
-0.769844 9.95925 0
-9.98363 14.9192 0
-13.2829 13.9132 0
17.9491 31.7447 0
1.77998 13.0102 0
-2.96814 14.4555 0
-9.92104 15.3506 0
-10.5383 9.99194 0
-12.9839 9.24354 0
-6.4118 11.6715 0
-5.85283 10.595 0
-6.24152 8.63524 0
-7.02285 9.55491 0
12.8001 11.4672 0
10.1838 12.0395 0
-10.7905 16.3776 0
-13.8559 16.2441 0
5.58915 9.60407 0
4.40526 9.9462 0
9.49849 13.3283 0
7.54557 12.7554 0
3.46734 11.4364 0
5.93813 13.4972 0
-2.19987 13.6842 0
-0.803129 14.0029 0
13.1988 17.9715 0
10.2911 19.1778 0
-0.139422 12.9441 0
0.72431 13.6441 0
10.9851 20.9244 0
3.29721 13.6062 0
12.7184 10.5796 0
9.60346 10.9329 0
-8.25664 11.1508 0
-8.28195 10.2697 0
-9.13478 8.33831 0
-7.0263 9.1673 0
-9.61018 14.5745 0
-5.95898 13.5612 0
20.3745 35.2281 0
22.6006 35.0791 0
1.33629 11.2141 0
2.20433 9.67705 0
-3.91129 13.3255 0
-3.76531 12.0048 0
-13.1217 13.1829 0
-9.8207 13.858 0
-0.652382 15.6766 0
-0.654559 15.6754 0
7.18514 10.5317 0
6.71142 11.4463 0
8.19266 8.91457 0
7.07154 10.2688 0
-10.728 15.8456 0
-13.5006 14.6596 0
-2.79135 14.4594 0
-1.79334 15.9986 0
1.00754 14.8701 0
2.46359 14.8948 0
5.69208 11.5791 0
5.35237 12.2627 0
-7.14412 14.8482 0
-6.8782 15.4036 0
-8.85297 12.4276 0
-6.17999 12.6447 0
3.2796 13.5566 0
4.13834 12.2976 0
-10.0918 18.3959 0
-3.84097 15.6662 0
13.6564 18.8503 0
11.0961 20.0544 0
-16.3697 22.3479 0
-13.7409 22.5949 0
7.52663 14.5419 0
6.775 13.6022 0
11.9573 16.1112 0
7.97673 17.4066 0
3.11367 16.2788 0
4.78621 16.894 0
0.498958 17.7937 0
2.50195 16.7343 0
-1.09179 24.3385 0
-3.63969 22.6505 0
-3.07431 20.9501 0
-4.2974 17.6622 0
-6.01366 12.4161 0
-3.96508 11.8806 0
-9.32091 17.335 0
-7.84776 16.2885 0
6.49982 21.7895 0
6.01008 18.7283 0
-13.0252 12.4878 0
-9.16214 12.892 0
-9.09577 13.0592 0
-6.88958 14.0684 0
-0.673482 18.0836 0
-0.408564 17.7319 0
13.6067 27.3057 0
1.64305 21.5799 0
16.26 23.6471 0
13.9929 24.3156 0
-14.8128 18.0025 0
-11.9522 18.8773 0
-5.17362 13.9426 0
-5.01827 15.3369 0
6.89861 15.4434 0
5.79836 15.4271 0
0.695162 15.3676 0
1.29544 16.4704 0
9.69283 13.7938 0
12.5515 14.2883 0
11.9553 16.0786 0
7.51034 14.8816 0
-11.6168 19.8999 0
-4.28338 18.199 0
-2.36897 17.0952 0
-3.44296 16.9444 0
2.84824 21.8324 0
3.47834 21.0746 0
-5.53182 15.7689 0
-5.42964 17.0529 0
3.13989 15.6204 0
5.19429 14.7893 0
-2.01854 20.8929 0
-0.571508 22.4453 0
1.77163 27.7764 0
11.3459 27.8179 0
-19.5231 36.6836 0
-21.0779 35.7264 0
-21.3374 47.2164 0
-2.60154 23.8542 0
-13.9487 16.4114 0
-11.7474 18.5597 0
-1.88587 18.0023 0
-3.33743 18.9327 0
-7.02808 18.567 0
-5.58344 19.0118 0
11.9627 23.7192 0
10.6959 26.998 0
3.97134 19.2521 0
5.44192 19.5191 0
10.2404 19.3572 0
7.29324 20.481 0
12.1967 16.4819 0
10.1081 18.9568 0
-13.3225 21.8686 0
-3.70214 20.2185 0
15.3307 21.9309 0
13.5543 23.6431 0
1.55697 18.8177 0
2.71817 18.0597 0
-15.5018 19.3983 0
-13.3612 20.7951 0
-1.92233 26.0716 0
3.38574 23.1693 0
-0.0447782 19.6702 0
1.22253 19.9783 0
-7.83613 16.4878 0
-6.48017 17.4948 0
7.11417 16.651 0
5.58117 17.5176 0
-1.51236 20.0876 0
-2.30065 18.7614 0
11.9509 16.0904 0
7.29201 16.1464 0
-2.6959 23.2989 0
-1.46708 22.2241 0
-5.54044 19.7557 0
-4.58606 20.4536 0
-4.38941 22.7674 0
-5.04856 21.7943 0
-13.8621 16.2523 0
-9.99204 17.966 0
4.44465 23.1574 0
5.07564 21.8439 0
-0.396731 28.9209 0
22.4364 58.4028 0
-7.79093 19.4461 0
-7.52981 20.6345 0
11.9086 72.9864 0
12.2457 74.8146 0
-9.86458 25.4889 0
-7.99615 28.1898 0
8.43585 18.7973 0
7.15049 20.1447 0
14.1024 19.6696 0
11.3794 21.1889 0
4.73613 21.2209 0
5.62806 19.9545 0
1.62252 19.629 0
3.15613 20.1073 0
2.77396 23.8617 0
4.69093 27.6483 0
3.75019 18.4229 0
4.90116 17.3179 0
1.20023 22.0384 0
1.56237 23.4891 0
11.9944 16.1968 0
8.41128 18.6664 0
-6.94114 34.2227 0
-4.68405 30.5001 0
-13.7292 24.8477 0
-16.7054 24.2126 0
-0.472728 20.1903 0
0.078157 21.7652 0
-6.99707 20.8284 0
-6.68524 21.7853 0
-9.33457 17.6959 0
-7.02882 18.5646 0
7.73668 24.0285 0
8.65204 22.1458 0
-16.1489 21.1664 0
-13.5987 21.4486 0
-7.11006 22.4282 0
-7.08498 24.0886 0
4.694 32.0828 0
8.18065 29.9815 0
-14.1862 26.6458 0
-9.69363 26.5963 0
7.62241 24.6819 0
5.12798 26.3431 0
2.09544 27.4539 0
1.09244 25.4677 0
-4.64315 24.6048 0
-4.45724 24.7522 0
20.0959 34.2697 0
21.9903 33.1718 0
-0.281962 23.6173 0
0.934794 24.0371 0
-9.10763 21.3321 0
-9.25641 21.699 0
6.61629 36.6385 0
13.2347 44.3438 0
-3.2284 24.5843 0
-2.68299 25.9091 0
13.7546 24.9042 0
11.348 25.4906 0
-20.3274 40.5073 0
-22.3713 39.5417 0
-18.5282 38.8703 0
-8.33792 33.2128 0
8.92427 21.457 0
8.46401 20.606 0
-10.206 23.597 0
-8.68329 22.487 0
11.7205 23.3596 0
9.33699 23.4503 0
-1.87077 36.3007 0
-0.600719 30.6523 0
-9.40969 19.2918 0
-9.92332 20.1879 0
16.6867 24.8881 0
14.2262 25.4838 0
14.5026 20.3251 0
12.1267 22.144 0
16.5907 30.1375 0
12.7521 31.5038 0
-1.823 28.8619 0
-1.5046 27.1647 0
-16.0545 31.0688 0
-18.1752 29.7777 0
2.93314 25.0936 0
1.8209 25.8249 0
7.30319 29.1619 0
6.40095 26.0085 0
4.99761 23.7129 0
4.10664 25.0524 0
-6.00631 27.6756 0
-5.40992 28.5007 0
6.98834 22.4503 0
6.77129 23.1287 0
5.57503 29.3457 0
6.24303 32.0438 0
-13.6974 24.9496 0
-10.552 25.1992 0
18.1809 31.0217 0
20.4322 30.1402 0
-8.53414 24.8773 0
-5.80328 26.9978 0
-14.5307 33.6543 0
-10.4816 31.3734 0
3.27636 31.5674 0
2.88066 31.8592 0
-16.5389 23.3731 0
-13.3962 23.7513 0
[...]
CELL_DATA 912
SCALARS cell_division_count float
LOOKUP_TABLE default
1
0
1
0
0
0
1
0
0
1
1
1
1
1
1
1
0
1
1
1
1
1
1
0
1
1
1
1
1
1
1
1
2
4
3
1
1
0
0
1
1
0
0
0
1
2
3
0
1
0
0
1
1
1
1
1
0
0
3
0
1
2
3
1
1
1
1
1
1
1
2
2
1
1
1
1
2
1
1
1
3
1
1
2
9
1
1
1
1
1
1
1
1
1
1
1
1
1
1
1
1
1
2
3
5
2
1
3
5
2
2
2
5
3
2
4
2
3
5
5
6
3
3
6
3
4
6
9
3
5
4
4
8
5
6
6
5
4
5
14
5
5
5
7
5
4
6
4
10
5
3
4
6
6
6
7
6
6
11
7
8
7
6
7
8
18
11
6
8
9
4
7
8
13
6
7
7
8
8
3
6
12
10
11
9
7
11
13
9
16
8
11
10
11
9
9
5
14
6
10
8
13
10
10
8
11
6
10
11
14
8
11
13
11
9
12
9
8
9
11
13
9
11
6
16
13
11
12
11
13
8
13
13
12
15
14
10
8
12
13
14
11
12
14
17
9
14
15
15
12
7
9
14
15
11
14
14
14
13
13
12
12
8
12
16
14
8
9
17
14
15
17
14
14
13
11
14
14
14
15
14
15
14
8
15
9
9
14
13
13
14
12
12
10
12
12
14
15
7
13
13
15
11
14
14
14
8
13
15
12
16
15
15
15
13
14
15
16
12
15
19
10
11
14
16
14
16
17
14
15
12
7
13
13
19
14
15
13
16
16
13
16
15
12
15
14
17
13
10
9
14
18
13
15
14
15
11
17
15
15
17
15
14
14
13
15
14
22
16
15
17
15
15
15
17
8
16
15
15
16
13
14
10
19
16
17
12
16
18
14
18
16
15
9
16
15
14
16
22
16
19
14
15
15
22
18
14
17
8
11
11
14
15
12
17
15
15
16
17
15
16
15
16
16
16
22
16
15
15
17
20
16
20
17
17
18
15
19
14
16
22
11
11
13
14
16
17
18
20
19
17
18
17
17
17
15
17
16
17
16
19
12
11
16
17
17
20
13
16
19
15
16
15
20
20
19
20
15
21
23
17
19
18
20
20
15
14
18
16
16
16
17
19
16
18
15
17
17
17
13
17
18
22
17
18
17
20
23
17
16
22
22
20
21
20
16
11
22
17
18
17
16
19
17
16
19
21
17
17
18
13
20
13
21
17
18
17
20
18
22
18
17
13
17
15
18
23
19
17
19
24
21
19
22
16
17
23
22
12
16
14
16
21
10
22
16
19
17
22
20
17
22
19
18
22
21
18
22
18
17
12
14
16
20
20
19
20
21
21
18
20
19
18
18
17
16
18
19
19
22
20
11
19
19
14
16
22
21
24
17
19
20
22
14
19
22
21
24
19
20
21
20
23
21
18
14
21
21
22
19
21
18
21
21
20
22
22
21
14
18
20
13
21
19
21
20
21
17
13
19
24
22
21
22
21
21
21
17
20
22
22
24
18
23
17
19
18
22
22
21
22
15
20
19
24
21
21
17
21
14
22
23
20
23
20
15
20
20
20
20
23
18
22
15
20
22
20
23
22
20
18
21
18
18
18
20
18
21
23
21
19
16
24
24
21
25
24
22
19
21
15
21
21
22
20
23
23
20
21
16
22
23
16
21
21
22
21
22
23
23
19
23
22
23
20
22
22
22
22
18
21
14
22
18
20
22
22
19
24
15
15
20
13
18
22
21
18
22
20
20
19
21
23
15
24
15
21
21
22
21
22
22
21
24
21
14
14
24
21
14
21
22
24
15
21
22
20
24
21
18
22
22
22
23
21
22
22
17
21
23
17
21
19
16
21
21
21
20
22
23
16
24
23
21
21
23
22
23
23
22
22
21
24
22
23
23
19
23
21
22
21
24
20
21
15
23
21
20
19
25
23
21
24
20
24
19
24
16
19
23
24
21
20
21
24
24
20
24
20
23
22
22
23
19
23
20
22
22
15
24
16
19
15
23
20
21
24
17
16
20
21
22
22
24
16
23
21
23
22
22
23
22
23
24
22
21
16
21
21
22
23
22
SCALARS cell_time float
LOOKUP_TABLE default
3031
2.22229e+13
3051
4.48239e+13
2.67348e+11
1.25633e+10
3061
2.68224e+09
9.19769e+11
3051
3051
3041
3011
3061
2981
3021
1.22904e+06
3061
3031
3061
3061
2961
3001
26843.4
3061
3061
3061
3061
3061
2951
3011
2951
2911
2651
2801
2901
3041
1.00108e+18
2.94533e+15
3011
3001
108143
4405.76
3117.34
2991
2891
2691
3108.01
3001
5759.01
3376.18
2981
3021
3031
3041
3011
1.12104e+13
24226.3
2481
5097.96
3011
2931
2751
3061
3061
3061
3061
3061
3061
3061
2941
2821
3061
3051
3051
3051
2881
3041
3041
3041
2181
3031
3031
2891
1811
3031
3021
3021
3011
3011
3011
3011
3011
3001
3001
3001
2991
2981
2981
2961
2951
2951
2941
2811
2631
2911
2901
2751
2531
2891
2891
2891
2181
2471
2881
2501
2821
2811
2541
2501
2391
2771
2751
2381
2751
2471
2481
2171
2691
2541
2671
2671
1451
2481
2371
2401
2601
2381
2571
1401
2541
2541
2531
2231
1661
2501
2271
2251
1901
2481
2471
2471
2471
2461
2401
2201
2391
2381
1741
1811
1731
2191
1781
2121
2191
721
1871
2271
2261
1811
2251
2231
2231
1081
1591
2061
2201
1921
2191
2181
1911
1601
2051
1811
2131
2121
1751
1541
1231
451
1871
1921
2041
1631
1811
1611
2011
1401
1991
1991
1391
1411
1961
1931
1921
1921
1911
1901
1881
1421
1871
1861
1141
1851
1071
1301
1811
1591
1811
1811
1531
1811
1801
1781
961
961
1751
1751
1741
1521
1731
1281
1271
1241
1241
1441
1671
891
1651
1641
811
1641
1261
141
481
1611
1401
1251
721
1601
1291
1381
961
1281
801
1281
1281
1281
1351
1521
1341
1341
971
1301
921
1021
1451
1451
741
1441
871
501
1421
1221
1411
731
1411
1401
1401
151
1401
921
1401
1391
1261
1201
1381
1261
1261
1351
901
1341
1331
1321
1301
1301
921
1151
1291
1291
1281
1281
891
1281
1281
1281
1091
1271
1001
1261
721
851
1261
1001
1261
1081
1251
971
1241
1241
441
511
1231
1061
731
1221
601
591
1051
721
571
1191
391
1181
531
1161
1151
1141
951
681
1131
901
1121
1111
931
1111
751
1091
1091
931
1091
461
1081
881
1081
821
441
731
891
1061
11
911
1051
171
691
671
1021
1
881
1001
541
1001
871
1001
671
971
971
971
971
961
961
961
961
441
841
371
481
951
491
941
451
691
931
931
921
921
921
11
211
531
341
911
171
911
281
681
901
751
891
601
891
891
891
741
631
881
751
881
751
871
871
871
631
731
861
31
511
851
851
701
361
841
291
571
581
251
821
411
811
811
31
801
801
661
141
681
501
651
311
451
591
161
751
561
751
751
751
521
741
591
441
741
731
731
731
571
471
441
731
621
721
721
721
11
361
71
251
281
41
141
591
131
571
371
281
211
521
181
691
481
681
531
551
681
381
671
671
571
461
661
491
651
231
651
651
361
301
31
631
631
161
1
481
61
391
601
601
281
591
471
591
21
471
591
591
161
121
591
581
581
171
161
371
111
571
571
571
101
571
181
331
571
361
561
81
321
101
551
541
431
41
411
531
101
531
531
101
101
521
521
521
521
11
511
11
511
511
501
121
381
501
101
501
491
191
151
291
101
371
481
481
481
481
481
381
31
311
251
351
471
221
471
461
171
461
451
451
251
451
121
301
441
441
441
241
51
341
141
61
121
431
431
151
311
421
181
151
41
411
41
131
111
1
401
191
141
101
201
151
21
381
381
381
261
381
131
171
251
191
261
371
371
161
181
221
361
151
361
361
51
101
131
351
131
351
91
121
341
61
201
341
41
331
161
121
201
321
211
111
321
101
21
311
311
61
91
141
311
311
311
1
81
301
101
301
161
301
301
301
291
1
291
281
281
281
281
41
21
11
271
261
261
261
261
251
251
251
91
111
251
251
121
161
91
251
71
1
1
101
1
111
241
81
231
91
71
221
221
221
211
211
141
1
211
1
101
1
211
51
41
61
111
111
31
31
201
201
31
191
191
91
191
31
181
181
181
181
181
51
31
171
81
171
171
171
161
161
161
21
161
161
161
161
161
161
151
21
151
151
151
151
151
151
151
51
141
141
61
141
141
141
141
31
131
131
1
51
11
131
131
131
131
131
131
121
121
121
121
121
121
121
121
121
121
121
111
111
111
111
111
11
21
11
111
11
101
101
101
1
101
101
101
101
101
101
101
101
11
91
1
91
91
91
91
81
81
81
81
71
71
71
61
61
61
61
61
61
51
51
51
51
51
51
41
41
41
41
41
41
41
31
31
31
31
31
31
31
31
31
31
21
21
21
21
21
21
21
11
11
11
11
11
11
11
11
11
11
11
1
1
1
1
1
1
1
1
1
1
1
1
1
1
SCALARS cell_area float
LOOKUP_TABLE default
3.24162
3.29963
3.29282
3.35564
3.35088
3.34295
3.32568
3.37383
3.34819
3.28111
3.33588
3.2815
3.38516
3.31811
3.30519
3.32934
3.39789
3.28766
3.34498
3.39617
3.3907
3.33838
3.33846
3.37085
3.35688
3.37409
3.43802
3.40002
3.38978
3.32814
3.24631
3.29572
3.34996
3.33518
3.4416
3.24861
3.34414
3.25258
3.26105
3.24852
3.23668
3.27774
3.2613
3.27809
3.21932
3.28339
3.25415
3.26215
3.25839
3.24778
3.26752
3.27312
3.21638
3.2571
3.24473
3.24212
3.20943
3.21652
3.26241
3.19555
3.24609
3.30485
3.26738
3.27957
3.33624
3.28403
3.39695
3.34993
3.27867
3.35492
3.44997
3.34899
3.3553
3.28613
3.24761
3.27383
3.33974
3.35015
3.23055
3.22206
3.21632
3.2583
3.33352
3.32984
3.36708
3.22256
3.29607
3.2522
3.36821
3.28645
3.22445
3.20365
3.21576
3.303
3.25138
3.24414
3.25795
3.32326
3.26288
3.29911
3.28878
3.2625
3.39964
3.23055
3.29059
3.23926
3.32681
3.38108
3.28919
3.27806
3.25603
3.27082
3.27009
3.29132
3.24431
3.31374
3.35446
3.40375
3.25314
3.4205
3.30075
3.34638
3.2704
3.34588
3.4038
3.25595
3.43823
3.3935
3.21365
3.27752
3.33247
3.2043
3.27476
3.3689
3.31134
3.35214
3.36354
3.25471
3.36198
3.30445
3.24728
3.27851
3.31349
3.2712
3.22925
3.34536
3.39883
3.26586
3.38136
3.31124
3.29813
3.22709
3.36986
3.35878
3.38103
3.38382
3.33583
3.30623
3.3517
3.26341
3.25007
3.40804
3.27947
3.31693
3.36573
3.38435
3.3686
3.32626
3.29862
3.36392
3.26822
3.32271
3.43027
3.29209
3.26382
3.22336
3.35834
3.36395
3.3913
3.23649
3.29463
3.3069
3.43681
3.39005
3.3876
3.315
3.38682
3.40678
3.29472
3.35405
3.26884
3.41091
3.40272
3.2787
3.35359
3.26729
3.22744
3.28453
3.22892
3.34082
3.25123
3.34744
3.42075
3.35121
3.29793
3.39172
3.28503
3.35068
3.38535
3.36838
3.30396
3.39194
3.40619
3.35887
3.27147
3.31852
3.33973
3.26539
3.37197
3.37077
3.44918
3.35011
3.40315
3.27104
3.39484
3.27714
3.39868
3.33146
3.30742
3.37149
3.21114
3.36139
3.44063
3.25863
3.35158
3.4186
3.4321
3.26979
3.39357
3.38668
3.28865
3.37568
3.26264
3.33412
3.34193
3.33736
3.38164
3.2931
3.32952
3.31605
3.27983
3.23824
3.33271
3.38436
3.2981
3.3947
3.32325
3.35541
3.4108
3.34085
3.35324
3.30274
3.22492
3.36866
3.38317
3.41786
3.26556
3.27419
3.41166
3.37923
3.3888
3.33056
3.37903
3.39143
3.38539
3.31522
3.34426
3.33409
3.352
3.27781
3.25896
3.36213
3.37265
3.25533
3.37991
3.24857
3.28749
3.28693
3.35713
3.34973
3.36943
3.30546
3.37481
3.27733
3.39167
3.35466
3.37564
3.40105
3.29599
3.40103
3.33626
3.38773
3.33441
3.34886
3.35064
3.33052
3.24561
3.40473
3.394
3.30805
3.41377
3.33776
3.31938
3.33618
3.4009
3.31917
3.39968
3.37572
3.35451
3.35255
3.3338
3.31386
3.28237
3.34458
3.38051
3.3566
3.33426
3.30794
3.37423
3.32215
3.31043
3.26784
3.29897
3.33951
3.3598
3.38374
3.35704
3.30344
3.38475
3.38182
3.3554
3.30999
3.27379
3.289
3.33208
3.3608
3.34638
3.35224
3.23886
3.33478
3.43348
3.39906
3.33552
3.3557
3.32071
3.35779
3.28343
3.3749
3.36135
3.35533
3.27609
3.31844
3.35475
3.2582
3.30024
3.28758
3.35022
3.35812
3.39578
3.35154
3.38422
3.31952
3.41284
3.35818
3.33747
3.26156
3.36786
3.31765
3.38662
3.37085
3.2929
3.29986
3.30848
3.37074
3.35514
3.33477
3.30856
3.37355
3.38966
3.31507
3.38271
3.33298
3.33922
3.30128
3.28391
3.37623
3.31225
3.32138
3.31501
3.31287
3.30697
3.3078
3.30524
3.38253
3.36579
3.35162
3.34529
3.29789
3.27704
3.29427
3.29213
3.36451
3.37554
3.29313
3.36599
3.31853
3.32337
3.36035
3.35252
3.36411
3.32382
3.37784
3.3702
3.4346
3.38066
3.30386
3.3796
3.36302
3.39652
3.3871
3.35909
3.37735
3.3556
3.33701
3.33236
3.32462
3.30383
3.38022
3.32074
3.33741
3.30509
3.28085
3.26079
3.30049
3.2751
3.31499
3.35948
3.3765
3.34754
3.41418
3.35119
3.29117
3.308
3.39111
3.38106
3.30698
3.32991
3.33738
3.3717
3.33195
3.37922
3.27598
3.30927
3.39395
3.36434
3.41768
3.34469
3.30819
3.32467
3.40386
3.3139
3.39341
3.32748
3.30914
3.30883
3.34094
3.36705
3.30991
3.32314
3.37547
3.35846
3.32639
3.36831
3.40208
3.34274
3.34217
3.30815
3.40413
3.30412
3.32208
3.3979
3.31911
3.38144
3.31959
3.34865
3.35248
3.32818
3.33268
3.32535
3.30171
3.34758
3.36108
3.37113
3.36238
3.37746
3.33242
3.34892
3.30498
3.39204
3.38479
3.30288
3.37188
3.33871
3.35417
3.34837
3.35884
3.25088
3.40419
3.30683
3.36608
3.34811
3.30632
3.43997
3.39733
3.38939
3.33977
3.33861
3.34523
3.30264
3.34741
3.31284
3.31515
3.34653
3.35667
3.3328
3.37882
3.35617
3.29231
3.38015
3.38213
3.38639
3.36233
3.31521
3.38542
3.33213
3.30316
3.319
3.3981
3.39131
3.38437
3.35155
3.26741
3.42093
3.33055
3.36712
3.34784
3.38798
3.35846
3.31299
3.34242
3.30343
3.32873
3.33184
3.23867
3.34834
3.34634
3.32944
3.35342
3.29866
3.32661
3.34169
3.32748
3.44376
3.3592
3.42059
3.32349
3.37543
3.33763
3.35572
3.26069
3.30858
3.25308
3.30194
3.39506
3.39977
3.2984
3.36739
3.37053
3.30088
3.36633
3.35616
3.3118
3.36288
3.36921
3.33393
3.28544
3.31085
3.27571
3.37707
3.32217
3.31133
3.25647
3.37407
3.38835
3.31403
3.36666
3.34899
3.32701
3.29291
3.30473
3.32731
3.31741
3.33438
3.32669
3.36183
3.28537
3.319
3.33945
3.32211
3.28188
3.35456
3.34991
3.34384
3.34312
3.35262
3.31169
3.3323
3.29528
3.37314
3.34621
3.32862
3.29553
3.38936
3.38857
3.35596
3.36004
3.38511
3.37481
3.32909
3.34975
3.381
3.31461
3.36011
3.35421
3.3551
3.40255
3.34129
3.34446
3.31077
3.29486
3.33511
3.28379
3.26142
3.37724
3.35655
3.32299
3.38083
3.33073
3.31326
3.34032
3.35398
3.32109
3.39364
3.31098
3.31547
3.32582
3.3438
3.32163
3.34131
3.32558
3.30402
3.32147
3.4053
3.35843
3.39847
3.3296
3.33926
3.35145
3.32518
3.32403
3.35439
3.36436
3.35029
3.40753
3.38053
3.3053
3.33685
3.38968
3.32504
3.325
3.36635
3.40215
3.35099
3.29893
3.33814
3.29981
3.33681
3.32558
3.3074
3.32768
3.32664
3.35039
3.34152
3.34954
3.31995
3.32094
3.34767
3.32779
3.35571
3.3663
3.3165
3.33496
3.33627
3.346
3.33755
3.33856
3.37546
3.35717
3.31451
3.35503
3.32875
3.33254
3.34129
3.35209
3.32438
3.36263
3.34303
3.33745
3.3577
3.34113
3.33238
3.31278
3.35272
3.35505
3.35311
3.30088
3.34781
3.28956
3.34604
3.34251
3.36591
3.32283
3.29392
3.30225
3.33101
3.34901
3.34726
3.24822
3.37677
3.3519
3.34199
3.31818
3.34922
3.3145
3.33558
3.33787
3.32312
3.35246
3.35308
3.30835
3.31284
3.31493
3.30048
3.34495
3.34231
3.33566
3.32594
3.33506
3.31153
3.30491
3.32548
3.31544
3.39628
3.30077
3.40374
3.29752
3.30018
3.32144
3.33472
3.29096
3.33723
3.33967
3.33752
3.30916
3.33288
3.3313
3.30878
3.36318
3.33052
3.31441
3.2992
3.34587
3.31682
3.27502
3.33173
3.3577
3.32077
3.30057
3.30269
3.29488
3.32877
3.3594
3.35341
3.28785
3.2991
3.32327
3.30154
3.2721
3.37715
3.31746
3.31736
3.30807
3.33792
3.37236
3.3465
3.30139
3.37552
3.33735
3.30695
3.30337
3.33693
3.34397
3.34421
3.33578
3.29345
3.28459
3.3189
3.33238
3.36621
3.29479
3.35233
3.38962
3.33183
3.34614
3.33687
3.33084
3.36528
3.32144
3.28492
3.37592
3.30941
3.33596
3.31742
3.29974
3.27281
3.30643
3.32948
3.38803
3.36358
3.32854
3.33786
3.30357
3.32137
3.33772
3.36002
3.31505
3.37386
3.2846
3.33388
3.29724
3.31276
3.30105
3.40229
3.36261
3.34211
3.33217
3.31811
3.33479
3.37235
3.31224
3.37267
3.36549
3.3295
3.34879
3.32022
3.32561
3.31582
3.3105
3.31552
3.28834
3.26978
3.29613
3.32723
3.3477
3.31915
3.30078
3.32543
3.3131
3.32088
3.28103
3.31121
3.34067
3.28787
3.30203
3.33072
3.33769
3.32664
3.29045
580
366
70
183
503
3.31505
3.35456
0
0
0
0
0
0
0
SCALARS cell_perimeter float
LOOKUP_TABLE default
6.92851
6.94049
6.96597
7.19257
7.12441
6.82067
7.07949
7.64608
6.93309
6.92928
7.38826
7.00144
6.79726
7.24383
7.04186
6.79229
7.17205
6.96878
6.9229
6.97472
6.9428
7.27
7.23925
7.57544
7.59555
6.9566
7.95915
7.15407
6.90264
7.0682
6.94873
7.04596
8.17631
7.03381
7.13153
7.33412
7.88787
7.51659
7.82229
7.63455
8.26302
8.65304
8.17997
7.75333
7.37976
9.58273
8.01114
7.63789
8.03734
7.64882
8.11322
8.4291
7.77988
8.06667
7.6701
7.2139
7.43383
7.38746
8.82141
7.32245
7.72297
9.68622
8.59198
7.03554
7.1491
7.23983
6.89994
7.09121
7.18288
6.8641
7.77166
7.07322
7.17067
7.07949
7.24108
7.21597
7.78331
7.26894
6.93572
7.86905
8.21869
6.7898
7.02265
7.85083
7.48078
7.97497
6.82189
7.97496
7.09035
6.996
7.79351
7.31286
7.64843
7.12816
7.9268
7.96276
7.35784
6.94144
8.21521
7.18746
7.16749
6.94035
7.10797
8.04268
7.20964
7.02895
6.85253
7.49861
7.3134
8.57791
8.63543
8.5454
10.1301
7.21377
7.23634
7.05442
6.91759
7.36939
8.24147
7.1825
7.6293
7.29237
8.92062
7.158
7.2655
8.62489
7.28782
7.16558
7.70572
7.0247
7.28594
7.77808
8.39979
7.31211
7.29909
7.05113
7.05529
8.2582
6.95558
7.35433
8.19046
6.90931
7.57259
7.55302
7.42137
7.23058
7.18506
9.21377
6.99545
7.33557
7.30595
8.24364
7.10498
7.12931
6.81234
6.83814
8.0105
6.98849
7.53458
8.23219
7.749
6.80925
10.2426
7.31786
7.16191
6.93327
7.02306
7.14391
7.42096
7.11353
9.39632
7.84819
7.17762
7.38751
7.58973
8.25587
6.99493
7.13213
6.9479
7.96821
10.9113
6.99446
6.87809
7.02983
6.9221
7.333
6.96826
6.92453
7.67823
7.29161
9.59455
7.04776
7.21199
7.45884
6.91517
7.24824
8.46881
7.3692
7.58547
6.98157
8.47074
6.99919
7.17821
7.02406
7.04419
6.90274
10.5488
7.06776
6.90902
6.89348
10.1369
6.91828
7.08864
7.01335
7.30953
7.03842
7.72961
8.35398
6.98453
6.94079
6.95041
7.0165
6.99651
9.75281
7.24515
8.56506
7.0944
7.05276
7.42594
7.06761
7.69989
7.11299
7.04974
7.39023
7.05317
6.98085
6.87313
7.56497
6.91814
7.01365
6.91175
6.92605
7.57239
7.10969
7.04783
6.92883
6.83969
7.19793
6.89532
7.00609
8.23022
8.29252
6.82213
6.99951
7.61975
7.39989
7.10384
7.24438
6.82526
7.06533
7.22902
7.67489
7.54968
7.12832
7.14597
6.92859
8.18907
8.04551
6.9012
7.04084
7.01676
7.15301
6.85639
7.48808
6.94662
7.96874
6.99547
7.4883
7.52733
6.94909
7.45706
6.91184
6.93317
8.65132
6.79812
7.31502
8.6349
7.48203
7.21156
7.08003
6.92307
7.69171
7.25338
7.80228
7.02798
6.98947
7.0605
7.1329
8.74427
6.96581
7.07675
6.92406
9.8356
7.32395
7.06483
7.07955
8.18285
7.09009
7.10685
7.65908
7.02082
7.43782
7.00519
6.82553
7.3247
7.10181
6.96802
7.21098
6.78328
7.03256
6.97272
8.12541
7.97501
7.16274
6.995
7.11292
6.99024
7.22309
6.95964
7.06043
7.61182
7.716
7.27514
7.03811
7.03134
6.94609
7.54598
7.3322
6.9089
7.34712
7.07658
7.12972
7.30978
8.83793
7.02172
7.15073
7.00474
6.93969
7.70472
10.2107
7.34082
6.83385
7.38861
7.08247
7.14429
7.03686
7.17929
6.88854
6.95035
6.93156
6.94942
6.98469
7.05406
7.31233
7.57326
7.25343
7.1126
6.90328
7.2199
7.00274
7.01881
7.065
6.8959
7.13028
6.89025
7.84275
7.92906
7.06149
7.24538
6.9682
9.23615
6.8915
7.9797
7.06965
6.88814
6.74812
7.27338
7.00668
6.97241
7.02152
6.94917
7.05083
6.88669
9.52958
7.02715
7.00124
7.0916
7.21385
7.07884
7.00454
7.06629
7.10029
7.44258
6.97464
7.11888
7.00249
6.87945
7.19925
7.79515
7.65983
9.03864
7.05197
6.97789
8.05046
6.98358
6.96253
7.3358
6.9134
7.10633
6.98928
7.05334
6.88948
6.9633
7.19954
6.95964
7.00641
7.01242
7.38635
6.90645
6.92354
6.93736
6.99376
7.43138
6.89065
6.95706
6.97963
7.12185
7.20601
6.86845
7.0632
6.96408
7.314
7.40644
8.15245
7.36141
6.79736
6.8871
7.14533
7.03537
7.00509
6.97442
7.02123
6.94608
6.8899
7.15427
7.12628
7.06709
7.22056
7.03405
6.98091
6.92909
7.63582
7.92346
6.83251
6.94907
6.87487
7.08407
7.12362
7.45783
7.01373
6.94927
6.89882
7.34463
6.86236
6.84683
6.95526
7.32629
7.28039
7.11639
6.92455
6.95881
6.81103
6.91362
7.06242
7.03174
7.14274
7.77125
6.86786
7.05493
6.93976
7.15728
7.33356
6.85901
6.98321
7.29959
8.07973
7.02806
6.98871
6.94652
8.36807
7.07598
7.00315
7.6143
6.95232
7.05288
6.98204
7.07206
6.94103
7.06543
7.07547
6.93205
6.99693
7.0012
6.88486
7.16394
6.97098
7.46953
6.89325
7.27738
6.99682
7.18253
7.25428
7.44052
7.12531
7.44147
6.90102
7.08615
6.97463
7.04297
7.08313
7.099
7.12773
8.14037
6.79347
6.91811
6.90746
7.03709
6.98662
7.64483
7.21294
6.89332
6.95487
7.15228
6.93616
7.50876
7.15921
7.10397
7.05767
7.14209
7.26372
7.06908
7.02966
7.08962
6.83554
7.00299
7.22066
6.89559
6.84241
7.32004
7.11239
7.67356
7.05705
7.05773
7.33146
6.92614
6.93085
7.18219
7.09914
6.93742
7.06643
6.92016
6.94126
7.05317
6.9367
7.36581
6.96032
7.49779
7.00571
6.88736
6.93949
7.70301
7.31988
6.93715
7.10368
7.05264
7.07977
6.89713
6.89223
7.02394
7.2479
7.18023
7.18574
6.97762
7.2061
7.24293
7.08233
6.96526
6.94933
6.97031
7.04598
7.03194
7.35998
7.21755
7.04834
7.1069
7.57316
6.89651
6.89178
6.94861
7.27127
7.0115
7.13436
6.85242
7.20479
6.84385
6.92418
6.84546
6.84167
7.29479
6.91181
7.20849
7.14126
6.89227
6.93402
7.19226
7.35287
7.21569
7.00744
7.16509
6.83786
6.99155
6.94576
6.93816
7.06214
6.99621
7.00339
7.22346
6.92302
7.11066
7.34537
7.19688
7.78838
7.13459
7.07354
6.89656
6.83547
6.86247
6.86492
7.08654
6.95173
6.94703
7.06219
6.98333
6.99605
6.9368
7.12907
6.91933
6.93853
6.98471
6.92153
6.89041
6.88743
7.16739
7.18247
7.36266
6.88739
7.13821
6.875
6.89125
6.86491
7.00329
7.30263
6.9399
6.83304
6.98758
6.93919
7.19758
6.91405
6.88643
7.20353
7.01087
7.13677
7.0677
6.91919
6.86209
7.19214
6.91723
6.95872
6.9879
7.24007
7.18545
7.36056
6.99395
7.26352
6.8171
7.19934
7.21112
7.02786
7.32048
6.99154
6.86327
6.96214
6.98245
6.94988
6.97848
7.18096
6.92337
7.05705
6.82779
6.85248
6.97834
7.23608
6.90093
6.9631
6.96859
6.83267
6.89832
7.00952
6.84555
7.18029
7.16286
6.96028
6.93893
7.38498
6.82379
7.30724
6.92978
7.04612
6.98233
6.83429
7.15661
7.48928
7.27911
7.03135
7.10887
6.94735
6.86486
6.91544
7.0771
7.04451
7.02083
6.85437
7.0051
7.0051
6.8491
7.06339
6.86085
7.22612
7.01983
6.93403
6.82578
7.16436
6.99489
7.23563
6.83883
7.26873
6.90335
6.99026
7.13309
7.33552
7.4205
6.87633
7.21172
6.92478
7.21893
6.87087
6.91159
6.95234
6.93059
7.02092
6.91698
6.96456
7.06128
7.18835
7.01355
6.86317
7.01379
6.99687
6.85446
7.07406
7.01562
6.9484
7.03528
7.17636
7.02276
7.11478
7.24463
6.87794
6.89121
7.3323
6.96395
6.87066