# vtk DataFile Version 2.0
2D-vertex
ASCII
DATASET UNSTRUCTURED_GRID
POINTS 336 float
0.266079 -2.01112 0
2.84302 -1.79787 0
3.22529 -0.890861 0
2.24078 0.154035 0
-0.149566 0.334604 0
-0.894432 -1.07631 0
3.83014 -0.855011 0
4.40665 0.0069338 0
3.53299 1.43012 0
2.39096 1.10093 0
1.21349 2.263 0
-0.556314 2.82591 0
-1.35608 1.59785 0
-1.61201 1.5424 0
-2.1245 0.0410753 0
-1.64559 -0.823872 0
4.99813 -0.145813 0
5.89296 0.776954 0
4.10436 2.16067 0
3.74085 2.07304 0
2.9396 2.96517 0
1.74613 2.88793 0
1.20219 6.17439 0
0.0691004 6.12516 0
-0.645935 4.38084 0
-2.02619 3.66307 0
-2.00535 1.94188 0
-3.38775 1.67289 0
-3.86412 0.788144 0
-3.57872 0.0846363 0
6.99577 0.802924 0
7.67428 1.63055 0
7.43762 2.9099 0
5.28808 3.85154 0
5.8215 4.48642 0
3.42044 5.56568 0
2.73543 6.64872 0
1.66798 6.79721 0
0.567071 9.50762 0
-1.17276 9.43633 0
-0.781139 6.90915 0
-2.58482 6.10892 0
-3.5343 4.82928 0
-4.66566 4.92083 0
-5.34207 3.77666 0
-6.80867 3.54534 0
-7.09534 2.61932 0
-5.50599 1.11964 0
7.95697 3.69486 0
7.64015 4.58907 0
6.99228 4.89297 0
6.25822 6.85605 0
3.84597 7.75977 0
3.73666 8.45534 0
2.21464 9.72284 0
2.79118 10.5806 0
-2.2351 10.6651 0
-2.21603 10.0677 0
-3.40114 9.00884 0
-3.12643 7.10801 0
-4.95247 7.64789 0
-6.29187 6.59143 0
-8.27771 5.48404 0
-8.16709 4.84553 0
8.59378 5.09806 0
8.61215 5.17564 0
7.24634 6.97534 0
7.54259 8.35438 0
6.35851 9.29051 0
6.52259 10.1434 0
5.83794 10.8704 0
5.84465 11.2957 0
-2.84294 12.949 0
-3.06861 12.7691 0
-6.71117 11.2549 0
-6.07949 10.0639 0
-6.83182 9.10308 0
-6.69327 8.6942 0
-9.21724 6.24368 0
-9.06038 5.71839 0
10.0722 5.56882 0
10.3661 6.68966 0
9.63395 7.69266 0
10.656 8.15843 0
10.3162 9.78581 0
10.5062 10.7028 0
8.84822 15.8603 0
7.80164 19.0307 0
-7.35379 18.6328 0
-7.64281 18.0175 0
-10.4536 11.5814 0
-10.1502 10.7377 0
-10.5508 10.1953 0
-9.8341 8.85116 0
-10.5819 7.62935 0
-10.1789 6.45355 0
3.72285 -3.59988 0
4.97456 -3.0299 0
5.8749 -2.58458 0
8.29777 -0.887866 0
9.59212 0.630445 0
10.8887 3.04563 0
11.0461 3.35553 0
11.7405 4.55321 0
12.4279 6.59878 0
12.602 7.51121 0
12.4644 11.2469 0
8.97073 20.5091 0
-8.83512 20.3609 0
-12.43 11.9337 0
-12.5922 10.3437 0
-12.4905 7.4869 0
-11.7924 5.39731 0
-10.9927 4.14504 0
-10.3524 3.24548 0
-9.33201 1.64742 0
-7.35164 -0.60818 0
-5.19831 -2.08658 0
-3.02652 -3.12182 0
0.026933 -3.96251 0
11.8889 13.4971 0
8.97834 12.6774 0
-11.6137 15.8055 0
-9.66316 15.3635 0
-0.449839 4.13258 0
1.04821 4.26395 0
-2.03835 6.0134 0
-1.42874 4.37563 0
4.82783 5.82919 0
5.17214 6.80691 0
0.226237 10.8299 0
0.0737137 9.94058 0
-1.38865 8.06591 0
-2.78594 7.79933 0
6.25772 6.8585 0
5.40136 8.67075 0
4.44291 9.03851 0
4.29703 10.2033 0
2.40981 11.2598 0
2.40822 11.2579 0
-2.97121 11.114 0
-4.58149 9.99221 0
-4.18612 9.13753 0
-5.03274 8.25556 0
1.30504 1.74788 0
-0.1993 0.698961 0
6.62386 3.07493 0
5.56329 1.37643 0
5.28586 3.85267 0
3.24636 4.49262 0
-9.19735 12.9545 0
-6.44773 11.726 0
3.21665 4.47712 0
1.66491 5.08851 0
-9.73756 8.62706 0
-8.33755 7.7875 0
-0.96244 -1.10852 0
-1.39025 -3.70389 0
1.50223 21.8782 0
1.74375 23.8657 0
1.13185 -1.65258 0
1.24219 -0.28097 0
2.62156 8.77029 0
1.43496 7.56668 0
8.8532 11.8751 0
5.94793 11.1427 0
4.31537 20.411 0
0.37266 12.4223 0
-2.94702 -0.212737 0
-3.65915 -2.85199 0
-4.78498 2.77054 0
-5.62059 1.74001 0
-5.91164 -1.65939 0
-4.846 0.659947 0
0.380216 8.04478 0
-0.713735 7.51521 0
9.59131 7.38126 0
8.00679 6.46524 0
5.70926 0.244587 0
7.3707 -1.65136 0
1.64076 -4.04093 0
1.67472 -2.08283 0
-6.61106 1.89332 0
-8.15547 0.153732 0
-5.99543 5.45013 0
-7.26187 4.42635 0
7.76769 3.10147 0
10.1654 1.57473 0
-12.6048 8.93754 0
-9.836 8.84952 0
12.7291 9.64371 0
10.8031 9.33752 0
-3.15437 3.91334 0
-4.01152 2.72358 0
-9.85008 2.49363 0
-7.27171 3.9225 0
-4.0567 6.97417 0
-4.84648 5.27876 0
-7.38006 7.81357 0
-6.97302 6.76843 0
8.51355 8.65977 0
8.72686 9.39029 0
-0.958965 12.2342 0
-0.863301 11.5262 0
11.827 13.9801 0
9.59725 14.2805 0
8.37928 17.1394 0
2.25647 11.5024 0
8.05075 10.3553 0
9.30057 11.5601 0
-7.98882 9.43032 0
-8.24661 10.4719 0
-2.31573 14.5934 0
0.890093 13.6832 0
-9.09274 16.071 0
-4.41465 12.971 0
9.30052 11.5626 0
12.1082 12.6183 0
-8.62862 17.9742 0
-9.9065 19.2829 0
-12.1661 13.3286 0
-9.48959 12.6618 0
7.58334 21.5732 0
6.65604 20.0314 0
8.6163 12.9769 0
6.59386 12.5901 0
-9.45644 12.5116 0
-7.80061 11.2241 0
2.33243 14.6295 0
4.28536 13.5289 0
-5.00402 11.7932 0
-4.21572 10.7232 0
4.93152 13.5066 0
4.43157 11.7333 0
11.4674 16.0255 0
9.57383 15.3492 0
-2.83297 14.3846 0
-4.72608 14.0664 0
-1.01073 21.6551 0
-0.00358487 14.998 0
-7.03465 12.7124 0
-4.82228 13.4736 0
-11.9322 14.4312 0
-9.5388 13.9589 0
4.24449 18.1834 0
6.86249 16.8393 0
-1.05072 13.8914 0
-0.699393 12.486 0
-5.4827 20.8372 0
-6.49135 22.2609 0
0.923427 21.6391 0
1.92439 15.7598 0
-2.67676 17.2897 0
-4.16696 20.9466 0
-9.37982 16.799 0
-11.0983 17.3777 0
-5.86227 16.4598 0
-6.01302 14.9533 0
-6.78064 13.1766 0
-7.22781 14.6859 0
10.3229 18.7768 0
8.60897 17.9895 0
-2.90016 21.6398 0
-3.09014 23.7301 0
6.11227 13.4913 0
4.93306 13.5046 0
7.26455 19.0269 0
6.37185 17.6616 0
3.77507 14.5992 0
5.08358 17.8291 0
-1.87854 15.9786 0
-0.576387 16.0566 0
5.08526 22.9579 0
4.00075 21.1506 0
0.207705 14.9721 0
1.14356 16.001 0
2.37775 21.246 0
3.11568 17.37 0
10.9699 17.3944 0
8.95811 16.611 0
-7.13828 16.9636 0
-7.9483 15.9359 0
-9.25203 14.3153 0
-7.45635 14.2288 0
-5.84115 19.8047 0
-4.55502 17.7184 0
0.00900577 22.2845 0
0.0518918 23.9995 0
1.82065 13.7372 0
2.78788 12.5593 0
-3.27082 16.8959 0
-3.57896 15.0958 0
-7.80686 21.2685 0
-6.42962 19.6672 0
0.39361 17.8345 0
-0.121649 17.6155 0
7.27267 15.1394 0
6.51152 15.7512 0
8.70607 13.7579 0
7.26194 14.5876 0
-3.9979 21.3122 0
-5.02862 23.1016 0
-2.35296 17.1691 0
-1.05553 18.1923 0
1.01547 17.4072 0
2.13503 17.9769 0
5.72166 15.5206 0
5.0201 16.1543 0
-4.50656 18.7391 0
-3.55422 19.4025 0
-6.72774 18.7396 0
-5.27752 17.3944 0
3.12848 16.6737 0
4.24326 15.8767 0
-2.39508 21.3245 0
-2.95207 19.1797 0
3.18901 23.6139 0
2.91871 21.5356 0
-1.63982 23.9313 0
-1.4909 21.8881 0
5.55156 19.9153 0
5.2831 17.9714 0
6.25615 22.3561 0
5.20896 20.4018 0
2.42541 19.4742 0
3.77331 19.5903 0
0.751246 19.444 0
2.12734 19.7801 0
0.412556 19.8576 0
-0.630789 19.8944 0
-1.20972 19.3117 0
-2.28078 19.7118 0
-5.36382 16.6927 0
-3.81879 15.0566 0
-2.69565 21.5121 0
-3.62208 19.5735 0
CELLS 169 1121
5 0 160 161 4 5
6 2 6 7 8 9 3
6 9 144 145 4 161 3
8 145 12 13 14 15 156 5 4
8 7 16 178 17 147 18 19 8
7 144 9 8 19 20 21 10
6 22 23 24 124 125 153
8 25 26 13 12 11 124 24 127
7 14 13 26 27 28 29 168
6 30 31 32 146 147 17
7 18 33 148 149 152 20 19
5 20 152 153 125 21
7 22 37 163 174 175 40 23
5 24 23 40 126 127
5 26 25 192 193 27
7 28 27 193 170 171 47 173
9 49 50 34 148 33 146 32 186 48
5 36 35 128 129 52
6 36 52 53 162 163 37
6 38 54 55 139 130 131
7 40 175 132 133 59 41 126
6 42 41 59 196 197 43
7 44 43 197 184 185 195 45
8 49 64 65 177 66 134 51 50
7 51 134 135 136 53 52 129
6 53 136 137 55 54 162
8 55 137 70 165 71 233 138 139
7 57 56 140 231 141 142 58
7 59 133 58 142 143 60 196
6 61 60 143 77 198 199
5 65 80 81 176 177
6 67 200 201 208 69 68
7 69 208 209 216 164 165 70
5 71 225 264 265 233
8 73 72 236 291 333 237 241 215
5 91 92 93 210 211
8 77 76 210 93 189 154 155 198
5 6 2 1 96 97
5 16 7 6 97 98
5 30 17 178 179 99
4 101 48 186 187
5 64 49 48 101 102
5 80 65 64 102 103
6 176 81 104 105 83 82
4 105 190 191 83
5 120 121 164 216 217
5 123 214 254 255 122
5 92 91 90 109 110
5 92 110 188 189 93
5 79 78 95 112 113
5 63 62 79 113 114
5 194 195 185 63 114
4 173 47 116 172
5 15 14 168 169 118
5 0 5 156 157 119
5 181 160 0 119 180
4 30 99 100 31
4 80 103 104 81
5 292 293 284 248 249
4 94 111 112 95
5 171 182 183 116 47
6 120 204 205 298 224 121
5 122 242 243 282 123
5 124 11 10 21 125
6 126 41 42 192 25 127
5 128 34 50 51 129
6 130 203 56 57 39 131
5 132 39 57 58 133
5 134 66 67 68 135
6 136 135 68 69 70 137
8 138 207 167 247 202 203 130 139
5 140 73 215 230 231
6 142 141 75 76 77 143
5 144 10 11 12 145
4 146 33 18 147
5 148 34 128 35 149
7 150 221 226 227 74 151 240
7 152 149 35 36 37 22 153
5 154 94 95 78 155
4 156 15 118 157
5 223 266 87 107 222
6 160 181 1 2 3 161
5 162 54 38 174 163
6 164 121 224 225 71 165
7 166 273 317 276 327 324 325
4 168 29 117 169
6 170 44 45 46 182 171
5 172 117 29 28 173
6 174 38 131 39 132 175
6 176 82 200 67 66 177
4 178 16 98 179
4 180 96 1 181
4 182 46 115 183
6 184 61 199 62 63 185
5 186 32 31 100 187
5 188 111 94 154 189
5 190 106 85 84 191
6 192 42 43 44 170 193
5 194 115 46 45 195
5 196 60 61 184 197
6 198 155 78 79 62 199
6 200 82 83 191 84 201
6 202 72 73 140 56 203
4 204 234 235 205
6 206 261 87 266 267 245
5 208 201 84 85 209
6 210 76 75 74 227 211
6 213 274 239 246 247 167
6 214 123 282 283 259 281
5 216 209 85 106 217
5 218 89 88 108 219
5 220 109 90 226 221
5 222 322 323 320 223
5 224 298 299 264 225
5 226 90 91 211 227
5 228 288 289 229 268
6 230 151 74 75 141 231
7 232 229 289 207 138 233 265
5 234 278 279 86 235
7 236 212 270 302 252 290 291
6 253 248 284 308 309 335
6 240 151 230 215 241 258
5 242 220 221 150 243
6 244 277 312 313 307 269
6 246 212 236 72 202 247
5 248 253 300 301 249
7 274 275 304 294 295 271 239
6 252 302 303 330 331 315
4 254 218 219 255
5 256 280 281 259 257
6 258 241 237 257 259 283
4 260 107 87 261
5 319 238 286 287 318
7 264 299 296 297 306 232 265
5 266 223 320 321 267
6 268 229 232 306 307 313
5 270 212 246 239 271
4 272 316 317 273
6 274 213 288 228 251 275
6 276 158 250 328 326 327
5 278 260 261 206 279
6 280 89 218 254 214 281
6 282 243 150 240 258 283
6 284 293 310 311 285 308
5 286 250 158 159 287
5 288 213 167 207 289
6 290 285 311 332 333 291
5 292 108 88 310 293
7 303 295 294 326 328 329 330
6 296 86 279 206 245 297
6 298 205 235 86 296 299
4 300 262 263 301
5 302 270 271 295 303
6 304 275 251 312 277 305
7 306 297 245 267 321 269 307
6 308 285 290 252 315 309
7 310 88 89 280 256 332 311
5 312 251 228 268 313
6 314 334 335 309 315 331
5 316 159 158 276 317
6 318 263 262 334 314 319
7 320 323 166 325 244 269 321
5 322 272 273 166 323
5 324 305 277 244 325
6 326 294 304 305 324 327
5 328 250 286 238 329
6 330 329 238 319 314 331
5 332 256 257 237 333
5 334 262 300 253 335
CELL_TYPES 169
7
7
7
7
7
7
7
7
7
7
7
7
7
7
7
7
7
7
7
7
7
7
7
7
7
7
7
7
7
7
7
7
7
7
7
7
7
7
7
7
7
7
7
7
7
7
7
7
7
7
7
7
7
7
7
7
7
7
7
7
7
7
7
7
7
7
7
7
7
7
7
7
7
7
7
7
7
7
7
7
7
7
7
7
7
7
7
7
7
7
7
7
7
7
7
7
7
7
7
7
7
7
7
7
7
7
7
7
7
7
7
7
7
7
7
7
7
7
7
7
7
7
7
7
7
7
7
7
7
7
7
7
7
7
7
7
7
7
7
7
7
7
7
7
7
7
7
7
7
7
7
7
7
7
7
7
7
7
7
7
7
7
7
7
7
7
7
7
7
CELL_DATA 169
SCALARS cell_division_count float
LOOKUP_TABLE default
1
0
1
0
0
0
1
0
0
1
1
1
1
1
1
1
0
1
1
1
1
1
1
0
1
1
1
1
1
1
1
1
2
4
3
1
1
0
0
1
1
0
0
0
1
2
3
0
1
0
0
1
1
1
1
1
0
0
3
0
1
2
3
1
1
1
1
1
1
1
2
2
1
1
1
1
2
1
1
1
2
1
1
2
6
1
1
1
1
1
1
1
1
1
1
1
1
1
1
1
1
1
2
3
5
2
1
3
5
2
2
2
4
3
2
4
2
3
5
5
6
3
3
6
3
4
6
8
3
5
4
4
5
5
6
6
5
4
5
7
5
5
5
6
4
4
6
3
7
5
3
4
6
6
6
6
6
6
8
4
5
6
4
6
7
7
8
6
8
SCALARS cell_time float
LOOKUP_TABLE default
771
2.22229e+13
791
4.48239e+13
2.67348e+11
1.25633e+10
801
2.68223e+09
9.19769e+11
791
791
781
751
801
721
761
1.22678e+06
801
771
801
801
701
741
24583.4
801
801
801
801
801
691
751
691
651
391
541
641
781
1.00108e+18
2.94533e+15
751
741
105883
2145.76
857.338
731
631
431
848.006
741
3499.01
1116.18
721
761
771
781
751
1.12104e+13
21966.3
221
2837.96
751
671
491
801
801
801
801
801
801
801
681
561
801
791
791
791
621
781
781
781
631
771
771
631
91
771
761
761
751
751
751
751
751
741
741
741
731
721
721
701
691
691
681
551
371
651
641
491
271
631
631
631
101
211
621
241
561
551
281
241
131
511
491
121
491
211
221
51
431
281
411
411
111
221
111
141
341
121
311
81
281
281
271
131
261
241
11
221
81
221
211
211
211
201
141
131
131
121
1
121
111
111
101
91
81
81
51
11
1
SCALARS cell_area float
LOOKUP_TABLE default
3.24522
3.30242
3.29335
3.35978
3.35311
3.34324
3.32236
3.37845
3.35071
3.2812
3.33654
3.2861
3.37323
3.31432
3.30689
3.33225
3.40273
3.28219
3.33255
3.3711
3.37926
3.33748
3.34097
3.37153
3.35226
3.36089
3.41333
3.38269
3.37983
3.32593
3.25242
3.30049
3.33844
3.3068
3.39641
3.25286
3.35043
3.25895
3.26796
3.25534
3.24678
3.28776
3.26997
3.2899
3.22892
3.30282
3.27185
3.27318
3.2697
3.25896
3.27819
3.28313
3.22442
3.26468
3.25143
3.2479
3.21558
3.22424
3.27998
3.20525
3.25462
3.31581
3.2859
3.28039
3.33574
3.2914
3.36785
3.33421
3.28406
3.34957
3.40884
3.32113
3.34531
3.28688
3.24381
3.27565
3.32954
3.34474
3.23879
3.22934
3.26559
3.26198
3.31847
3.31396
3.32096
3.23024
3.29996
3.26017
3.35437
3.28953
3.23151
3.20898
3.22403
3.30582
3.2607
3.25755
3.26768
3.32491
3.2726
3.29824
3.29326
3.27167
3.36063
3.24606
3.27249
3.25534
3.3195
3.32987
3.27878
3.28461
3.27627
3.28231
3.28262
3.27392
3.25217
3.26804
3.33545
3.36533
3.27513
3.35169
3.25211
3.32635
3.29098
3.29416
3.35031
3.26977
3.33281
3.30486
3.22429
3.24708
3.301
3.22218
3.28095
3.33623
3.25578
3.30754
3.29194
3.24566
3.29917
3.29146
3.26957
3.26806
3.30327
3.29005
3.28267
3.30137
3.30969
3.28733
3.33142
3.29517
3.28926
3.23677
3.2833
3.29066
3.33126
3.30159
3.31387
3.25219
3.31096
3.28264
3.27806
3.31787
3.28601
3.26621
3.30193
3.2553
3.29088
3.27225
131
SCALARS cell_perimeter float
LOOKUP_TABLE default
6.92058
6.89574
7.03545
7.08043
7.04536
6.86765
7.04954
7.34941
6.87835
6.99127
7.34776
6.9735
6.85562
7.11576
6.97353
6.75375
7.11586
6.95382
7.00562
7.25538
6.90888
7.07611
7.10621
7.31043
7.37368
6.87033
8.046
6.90817
6.81925
6.9785
6.96418
6.87794
8.11541
7.01687
6.94976
7.12669
7.52098
7.42851
7.7015
7.5222
8.1072
8.38834
7.93768
7.51953
7.32542
8.28679
7.1592
7.22357
7.74899
7.43871
7.76956
8.062
7.66781
7.95183
7.60239
7.16988
7.36231
7.33368
7.20206
7.28848
7.59511
8.04969
7.43381
7.03598
6.97283
7.12942
6.97676
6.97544
7.06011
6.8871
8.05247
6.96946
7.03352
7.14479
7.26793
7.15671
7.61858
7.10574
6.94359
7.78816
7.14397
6.78042
7.02034
8.01721
6.81643
7.85954
6.80588
7.84205
6.94953
6.96867
7.68679
7.29457
7.53905
6.98784
7.79286
7.68954
7.20568
6.84712
7.94531
7.03792
7.05232
6.85222
7.15786
7.40629
6.87026
6.96786
6.80823
7.08043
6.93876
7.93077
7.29173
7.70289
7.2628
7.12116
7.15422
6.9654
6.97932
7.82039
7.27238
7.20704
6.94287
7.06711
7.79955
6.86994
7.26555
7.22005
7.15754
7.03778
7.28446
6.88105
7.14965
7.28595
7.18935
7.28518
7.01061
7.12668
6.93086
7.35848
6.82891
6.99764
7.2358
6.79349
7.27176
7.07818
7.16027
7.09864
7.34342
7.36912
6.83629
6.94112
6.93965
7.34745
6.95995
6.8467
6.92205
6.97221
7.09042
6.88728
6.92038
7.25846
7.27273
7.07419
7.3387
6.90644
7.02842
7.01611
6.98181
7.22052
103
SCALARS cell_frequency_modifier float
LOOKUP_TABLE default
5.6321e+16
1.16566e+13
3.59545e+12
6.16349e+12
5.12489e+11
2.64846e+10
1.85505e+07
1.53485e+09
8.289e+11
3.83793e+11
7.81385e+08
6.7785e+08
167037
6.13778e+06
5.90726e+09
9.94226e+10
2.05874e+08
3.20801e+06
63471.2
532.24
146831
2.2907e+06
5.43854e+07
1.89003e+06
41979.6
2060.13
167.517
688.422
24925.7
74711.7
2.60372e+08
5250.21
211.505
51.0518
6.31858
297352
8920.11
2.10375e+18
1.96044e+17
4.59495e+15
8.53434e+11
5.79628e+08
7.54036e+09
295439
2.45831e+06
60.0368
319.186
6107.15
663198
1.10204e+09
3.05794e+08
1.27017e+09
4.30656e+15
2.48413e+17
6.65185e+18
10000
5.68365e+14
6.20282e+08
2.97145
9.46503e+07
2.22834e+14
14.9806
12.7072
7.60605e+09
2.55925e+07
6.57892e+06
459.595
6907.04
114351
1545.32
70.8905
91.691
3506.96
1.69351e+11
1.60723e+12
3.07238e+08
60.7933
3.91233e+06
2.81339e+07
3.5581e+18
100.181
9.27494e+16
11006.4
77.4415
0.485383
1.63771e+17
8.68182e+09
1.16957e+16
7027.76
188009
7.69947e+16
10000
2.79727e+13
6.50267e+06
9.3503e+12
4.64046e+06
216290
3.29726e+08
1.12801e+11
1.4835e+06
973611
1.81363e+06
62.9224
834.283
30.7715
156123
889.85
10.3647
22.7409
423.265
5.06311
203.884
1.97485
224.227
40558.8
2209.8
275.404
28.4239
19.5587
1.38169
100.448
34.3386
28.5806
1.69781
11.567
118.763
1.21897
0.755484
151.162
433.133
11.6398
109.867
4.07331
4.60583
112.999
4.87496
6.0705
141.053
6.73081
0.884126
167.691
221.035
17.4704
1.18984
2.80633
44.1034
1.58302
1.19346
0.487113
2.54964
9.7711
147.376
3.36819
2.25107
1.02779
0.896033
0.909088
529.817
0.549561
2.64585
5.87292
0.544601
1.48304
123.63
0.779176
106.037
0.957986
310.194
1
SCALARS cell_area_modifier float
LOOKUP_TABLE default
100
0.638783
0.807692
0.330709
0.337349
0.370861
0.469274
0.306569
0.347826
2.30137
0.387991
1.26316
0.309392
0.520124
0.573379
0.422111
0.293194
2.15385
0.416873
0.315197
0.303797
0.383562
0.375
0.312268
0.340771
0.324324
0.288165
0.298401
0.301075
0.456522
100
0.705882
0.379233
0.583333
0.295775
100
0.351464
100
100
100
100
1.13514
100
1.03067
100
0.626866
100
9.33333
100
100
3.5
1.63107
100
100
100
100
100
100
2.89655
100
100
0.512195
1.36585
2.66667
0.397163
0.893617
0.318182
0.40678
1.48673
0.358974
0.290657
0.475921
0.362851
1.21739
100
5.09091
0.444444
0.366812
100
100
100
100
0.497041
0.528302
0.482759
100
0.72103
100
0.333996
1.06329
100
100
100
0.59364
100
100
100
0.46281
12.9231
0.753363
0.827586
100
0.327485
100
21
100
0.489796
0.438642
3.16981
1.42373
4.42105
2.0241
1.90909
7.30435
100
100
0.401914
0.321224
6
0.344262
100
0.450402
0.918033
0.788732
0.35518
100
0.411765
0.604317
100
100
0.691358
100
2.47059
0.392523
100
0.563758
0.848485
100
0.736842
0.870466
100
100
0.615385
1
1.71429
0.677419
0.554455
1.17483
0.427481
0.770642
1.09804
100
1.55556
0.971098
0.43299
0.664032
0.536741
100
0.545455
1.80645
3.90698
0.504505
1.3125
100
0.651163
100
0.94382
56
1
SCALARS cell_Gaussian_modifier float
LOOKUP_TABLE default
5.6321e+14
1.82481e+13
4.45151e+12
1.86372e+13
1.51916e+12
7.14139e+10
3.95303e+07
5.00652e+09
2.38309e+12
1.66767e+11
2.01393e+09
5.36631e+08
539886
1.18006e+07
1.03025e+10
2.35537e+11
7.02178e+08
1.48943e+06
152255
1688.6
483318
5.97219e+06
1.45028e+08
6.0526e+06
123190
6352.08
581.325
2307.03
82788.9
163654
2.60372e+06
7437.79
557.719
87.5174
21.3628
2973.52
25379.8
2.10375e+16
1.96044e+15
4.59495e+13
8.53434e+09
5.10625e+08
7.54036e+07
286646
24583.1
95.7729
3.19186
654.337
6631.98
1.10204e+07
8.73698e+07
7.78735e+08
4.30656e+13
2.48413e+15
6.65185e+16
100
5.68365e+12
6.20282e+06
1.02586
946503
2.22834e+12
29.2478
9.3035
2.85227e+09
6.44383e+07
7.36213e+06
1444.44
16979.8
76914.4
4304.81
243.897
192.66
9665.02
1.39109e+11
1.60723e+10
6.03503e+07
136.785
1.06658e+07
281339
3.5581e+16
1.00181
9.27494e+14
22143.7
146.586
1.00544
1.63771e+15
1.20409e+10
1.16957e+14
21041.5
176818
7.69947e+14
100
2.79727e+11
1.09539e+07
9.3503e+10
46404.6
2162.9
7.12444e+08
8.72867e+09
1.96917e+06
1.17645e+06
18136.3
192.138
8.34283
1.46531
1561.23
1816.78
23.6291
7.17423
297.293
1.14523
100.728
1.03444
30.6977
405.588
22.098
685.232
88.4863
3.25979
4.01348
1.00448
76.2398
31.1324
2.15258
32.5667
1.18763
2.96036
1.25015
1.51162
4.33133
16.8361
1.09867
1.64872
11.7339
1.12999
8.64725
7.15452
1.41053
9.13467
1.01569
1.67691
2.21035
28.3894
1.18984
1.63703
65.1051
2.85509
1.01586
1.1395
3.30847
8.89868
1.47376
2.16526
2.31807
2.3737
1.34938
1.69372
5.29817
1.00753
1.46467
1.50319
1.07948
1.12993
1.2363
1.19659
1.06037
1.01501
5.53917
1
