# vtk DataFile Version 3.0
2D-vertex
ASCII
DATASET UNSTRUCTURED_GRID

POINTS 196 float
0.116274 -2.30655 0
3.0449 -1.90756 0
3.3375 -1.087 0
2.35884 -0.164753 0
-0.314609 -0.0368446 0
-1.04977 -1.26232 0
4.14433 -0.972033 0
4.63035 -0.0174614 0
3.74663 1.09797 0
2.44253 0.614098 0
1.14972 1.50436 0
-0.829439 2.23486 0
-1.65029 1.18535 0
-2.01296 1.14387 0
-2.49672 0.0153077 0
-2.0316 -0.912011 0
5.2684 -0.0703347 0
6.21365 1.15441 0
4.32938 1.94084 0
3.89192 1.77474 0
3.17605 2.39938 0
1.73039 2.19226 0
1.26008 5.13575 0
-0.0447298 5.03194 0
-0.767477 3.33519 0
-2.63065 2.94082 0
-2.82101 2.08826 0
-3.64533 1.9045 0
-4.20449 0.813036 0
-4.02834 0.267833 0
7.36351 1.4311 0
7.95242 2.73154 0
7.38001 3.73998 0
5.38671 3.85555 0
6.01759 4.86784 0
3.49587 5.07096 0
2.70712 5.85379 0
1.66963 5.81362 0
0.414231 8.6649 0
-0.970474 8.42483 0
-0.83438 5.80504 0
-3.02063 5.49077 0
-3.85417 4.41948 0
-3.95917 4.42391 0
-4.73972 3.55032 0
-6.56403 4.40764 0
-6.99996 4.11988 0
-6.07112 1.73383 0
7.82669 5.21778 0
7.44551 5.73742 0
7.12562 5.74972 0
5.72321 7.37277 0
3.53909 7.29603 0
3.17089 8.03228 0
1.55376 9.03848 0
1.91805 10.176 0
-1.3123 10.72 0
-1.74022 9.07332 0
-2.99917 8.48826 0
-3.26795 6.44136 0
-4.69403 6.99286 0
-5.02212 6.7631 0
-6.86921 7.00254 0
-7.31983 5.69537 0
8.13061 6.67718 0
8.01266 7.13194 0
6.31304 8.10644 0
5.85024 10.0951 0
5.01285 10.2955 0
4.70428 11.0168 0
3.3133 11.1533 0
1.97837 12.1553 0
-0.725608 12.413 0
-1.4308 11.7724 0
-3.65575 11.6694 0
-3.80574 10.6956 0
-4.75023 10.3842 0
-5.21596 8.80054 0
-6.88134 7.61785 0
-6.99776 7.14992 0
8.96634 8.10927 0
8.2925 9.79899 0
7.033 10.7608 0
7.09762 11.0852 0
5.42881 12.1359 0
4.89437 13.077 0
2.19951 13.7535 0
1.84157 14.1231 0
-0.942858 14.4353 0
-1.31964 13.9407 0
-4.22664 13.8116 0
-4.72765 12.6634 0
-5.49086 12.4956 0
-5.79974 11.3997 0
-7.41764 9.95975 0
-7.79112 8.42168 0
3.91419 -3.50808 0
5.29685 -2.75184 0
6.36333 -2.06001 0
8.75964 0.330236 0
9.74181 2.33278 0
10.3016 5.38874 0
10.3713 6.41383 0
10.3891 8.22283 0
9.5953 10.7002 0
8.73119 12.0181 0
5.78112 14.5944 0
2.36847 16.0004 0
-1.41487 16.2426 0
-4.91459 14.9584 0
-6.58897 13.7077 0
-8.85024 10.764 0
-9.45922 8.41514 0
-9.42368 6.81201 0
-9.26191 5.33618 0
-9.14578 4.3181 0
-7.91928 0.797099 0
-5.6675 -1.5631 0
-3.3804 -2.92934 0
-0.11604 -3.98469 0
4.1019 15.435 0
3.50106 14.0058 0
-3.06878 15.804 0
-2.44453 14.1176 0
-0.687396 3.22827 0
1.09807 3.36439 0
-2.02515 5.15255 0
-1.75993 3.45174 0
4.90318 5.7335 0
4.89851 6.90188 0
0.0113502 10.6297 0
0.113641 8.87902 0
-1.38285 6.91474 0
-2.76994 6.94553 0
5.72223 7.64345 0
4.2253 8.98048 0
3.67312 8.94181 0
2.79031 10.2918 0
0.908136 11.6672 0
0.838075 11.1397 0
-1.49303 10.8973 0
-3.26958 10.2559 0
-3.44321 8.77634 0
-4.64805 8.25294 0
1.19689 1.26637 0
-0.336667 0.104641 0
6.57647 3.57574 0
5.98118 1.42471 0
5.38135 3.86017 0
3.5352 4.06035 0
-2.8087 13.6883 0
-2.51397 12.2934 0
3.24452 3.8412 0
1.70283 4.26015 0
-6.72521 10.1764 0
-5.62785 8.74765 0
-1.19024 -1.31368 0
-1.71284 -3.63297 0
0.400244 14.461 0
0.781578 16.3042 0
1.12227 -1.88779 0
1.19562 -0.713489 0
2.31184 8.02917 0
1.3229 6.58417 0
4.1023 13.0828 0
3.0946 11.7164 0
0.841355 13.9188 0
0.222099 12.3882 0
-3.27546 -0.157943 0
-4.16448 -2.51722 0
-4.71152 2.83741 0
-5.98315 2.25722 0
-6.61391 -0.771478 0
-5.33719 0.855621 0
0.378817 6.88947 0
-0.753214 6.30787 0
7.81151 9.8342 0
6.87696 8.04374 0
6.10624 0.580552 0
7.79674 -0.832361 0
1.71434 -4.06726 0
1.6823 -2.30073 0
-6.93856 2.92962 0
-8.63816 2.22132 0
-5.009 5.68872 0
-6.5425 5.03248 0
7.78353 4.24154 0
10.0731 3.65374 0
-7.83332 12.3525 0
-6.47218 11.2039 0
7.2031 13.6221 0
6.17636 12.1493 0
-3.38523 3.85274 0
-4.19776 2.38788 0
-9.20385 4.82714 0
-6.55009 4.81211 0

CELLS 294 882
2 160 0
2 1 2
2 2 3
2 161 4
2 4 5
2 5 0
2 2 6
2 6 7
2 7 8
2 8 9
2 3 9
2 9 144
2 10 11
2 11 12
2 145 4
2 12 13
2 13 14
2 15 14
2 5 156
2 7 16
2 17 178
2 147 17
2 19 18
2 19 8
2 20 19
2 21 20
2 10 21
2 153 125
2 23 22
2 24 23
2 24 124
2 127 24
2 26 25
2 26 13
2 27 26
2 28 27
2 29 28
2 14 168
2 30 17
2 30 31
2 32 31
2 32 146
2 18 33
2 33 148
2 128 35
2 20 152
2 35 36
2 37 36
2 22 37
2 37 163
2 38 131
2 175 40
2 40 23
2 126 40
2 41 42
2 25 192
2 42 43
2 43 44
2 193 27
2 45 44
2 46 45
2 47 171
2 173 47
2 48 186
2 48 49
2 49 50
2 34 50
2 50 51
2 52 129
2 36 52
2 52 53
2 53 162
2 54 38
2 55 54
2 139 55
2 57 56
2 39 57
2 58 57
2 59 133
2 59 41
2 60 59
2 60 61
2 43 184
2 61 62
2 62 63
2 195 185
2 49 64
2 64 65
2 177 65
2 51 134
2 67 66
2 67 68
2 53 136
2 68 69
2 70 69
2 55 137
2 165 70
2 138 71
2 73 72
2 56 140
2 151 73
2 74 75
2 58 142
2 75 76
2 77 76
2 143 60
2 155 77
2 78 79
2 79 62
2 65 80
2 80 81
2 81 176
2 82 67
2 82 83
2 191 83
2 69 84
2 85 84
2 85 164
2 71 86
2 86 87
2 158 88
2 88 89
2 89 72
2 89 123
2 90 91
2 91 74
2 91 92
2 93 92
2 76 93
2 189 93
2 94 95
2 95 78
2 96 1
2 96 97
2 97 6
2 97 98
2 16 98
2 179 99
2 99 30
2 31 100
2 187 101
2 101 48
2 101 102
2 102 64
2 102 103
2 103 80
2 81 104
2 104 105
2 83 105
2 105 190
2 106 85
2 106 120
2 87 107
2 108 88
2 108 122
2 109 90
2 109 110
2 92 110
2 110 188
2 111 94
2 95 112
2 112 113
2 113 79
2 113 114
2 63 114
2 114 194
2 115 46
2 116 47
2 116 172
2 117 29
2 169 118
2 118 15
2 157 119
2 0 119
2 119 180
2 99 100
2 103 104
2 159 108
2 111 112
2 183 116
2 120 107
2 121 86
2 120 121
2 122 109
2 123 150
2 122 123
2 124 11
2 125 21
2 124 125
2 41 126
2 127 25
2 126 127
2 34 128
2 129 51
2 128 129
2 56 130
2 131 39
2 130 131
2 39 132
2 133 58
2 132 133
2 134 66
2 135 68
2 134 135
2 136 135
2 137 70
2 136 137
2 167 138
2 139 130
2 138 139
2 140 73
2 141 75
2 140 141
2 142 141
2 143 77
2 142 143
2 144 10
2 145 12
2 144 145
2 146 33
2 147 18
2 146 147
2 148 34
2 149 35
2 148 149
2 150 90
2 151 74
2 150 151
2 152 149
2 153 22
2 152 153
2 94 154
2 155 78
2 154 155
2 156 15
2 157 118
2 156 157
2 87 166
2 159 107
2 158 159
2 181 160
2 161 3
2 160 161
2 162 54
2 163 174
2 162 163
2 164 121
2 165 71
2 164 165
2 166 158
2 167 72
2 166 167
2 168 29
2 169 117
2 168 169
2 44 170
2 171 182
2 170 171
2 172 117
2 173 28
2 172 173
2 174 38
2 175 132
2 174 175
2 176 82
2 177 66
2 176 177
2 178 16
2 179 98
2 178 179
2 180 96
2 181 1
2 180 181
2 182 46
2 183 115
2 182 183
2 184 61
2 185 63
2 184 185
2 186 32
2 187 100
2 186 187
2 188 111
2 189 154
2 188 189
2 190 106
2 191 84
2 190 191
2 192 42
2 193 170
2 192 193
2 194 115
2 195 45
2 194 195

CELL_TYPES 294
3
3
3
3
3
3
3
3
3
3
3
3
3
3
3
3
3
3
3
3
3
3
3
3
3
3
3
3
3
3
3
3
3
3
3
3
3
3
3
3
3
3
3
3
3
3
3
3
3
3
3
3
3
3
3
3
3
3
3
3
3
3
3
3
3
3
3
3
3
3
3
3
3
3
3
3
3
3
3
3
3
3
3
3
3
3
3
3
3
3
3
3
3
3
3
3
3
3
3
3
3
3
3
3
3
3
3
3
3
3
3
3
3
3
3
3
3
3
3
3
3
3
3
3
3
3
3
3
3
3
3
3
3
3
3
3
3
3
3
3
3
3
3
3
3
3
3
3
3
3
3
3
3
3
3
3
3
3
3
3
3
3
3
3
3
3
3
3
3
3
3
3
3
3
3
3
3
3
3
3
3
3
3
3
3
3
3
3
3
3
3
3
3
3
3
3
3
3
3
3
3
3
3
3
3
3
3
3
3
3
3
3
3
3
3
3
3
3
3
3
3
3
3
3
3
3
3
3
3
3
3
3
3
3
3
3
3
3
3
3
3
3
3
3
3
3
3
3
3
3
3
3
3
3
3
3
3
3
3
3
3
3
3
3
3
3
3
3
3
3
3
3
3
3
3
3
3
3
3
3
3
3
3
3
3
3
3
3
3
3
3
3
3
3

CELL_DATA 294
SCALARS current_Length float
LOOKUP_TABLE default
1.08967
0.871169
1.34473
1.65488
1.42908
1.56527
0.814985
1.07118
1.42307
1.39097
0.783334
1.40608
2.10967
1.33239
0.143195
0.36503
1.22787
1.03743
0.149565
0.640238
0.58382
0.356517
0.467939
0.69219
0.950078
1.46042
0.900212
1.0808
1.30893
1.84427
0.133584
0.999275
0.873549
1.24291
0.844548
1.22636
0.572951
0.797773
1.18269
1.42757
1.15957
0.820154
2.18725
0.00708002
1.55547
1.44345
1.11128
1.03826
0.791984
0.844962
0.369056
0.509339
1.10509
1.35782
1.35737
1.91923
0.105092
1.17149
1.41672
2.01571
0.522335
0.530725
1.14451
0.977194
0.644459
0.320119
1.41614
2.145
1.4154
1.665
0.823193
0.859055
1.1992
1.19447
1.44743
1.70139
1.00651
1.38825
0.708654
0.982242
1.52901
0.400539
1.64374
1.86255
1.38266
0.625209
1.16297
0.469808
1.45643
0.270684
2.04181
0.861037
1.03898
0.784514
1.39766
0.879901
0.604149
1.17629
0.952756
0.253168
1.20195
0.985261
0.529297
0.994505
1.65074
1.26092
0.415266
0.4822
0.195571
1.36553
1.81912
0.482273
1.35725
0.330693
1.40754
1.33319
1.08225
0.792096
1.61339
0.5145
1.34335
0.621757
1.63913
1.13872
1.25276
1.46182
0.781422
1.13866
1.46034
0.700346
1.58276
1.21402
1.82136
1.57596
2.12038
1.27122
2.27106
1.50957
1.77794
1.83328
1.74999
2.48084
1.02746
2.2561
1.80909
1.4273
1.58416
1.57589
1.8812
2.21538
1.75749
1.87785
1.94988
1.86788
1.71107
1.33731
2.08989
1.63555
1.83988
1.64291
1.66812
1.60352
2.44933
1.48467
1.97502
1.02468
2.15496
2.07199
2.04069
2.45747
0.885792
2.4267
1.63508
1.69414
1.83224
2.23043
2.60149
2.19731
2.42652
1.59537
1.82333
1.32577
1.55032
2.0303
0.562954
1.79824
1.00351
1.33181
1.79065
1.05136
1.00955
1.72136
1.41113
0.949663
1.16839
1.32672
1.17541
1.75368
1.56539
1.55967
1.38744
0.750614
1.53283
2.0071
0.553536
1.00781
1.61299
0.995233
0.971383
0.532132
0.877275
0.693421
1.88879
1.4897
0.788917
1.31362
0.242623
1.70105
1.92391
1.22222
1.73056
2.23189
1.19173
1.01137
1.85697
1.42328
1.30115
1.42575
0.364034
0.981172
1.5976
0.72555
1.68751
1.80158
0.932316
1.80993
2.37744
1.02085
1.61572
1.88224
0.695816
1.28616
1.17659
1.26229
0.992221
1.751
1.10152
1.19942
1.69779
0.698968
0.948031
1.65115
0.864939
1.78029
2.52122
0.713466
1.1683
1.39775
1.23383
1.13351
2.0682
1.77578
0.874483
1.27269
1.21026
0.567395
2.01968
1.06096
1.88728
2.20321
2.26981
1.41819
1.76682
1.19185
2.15735
1.84128
1.07445
1.0216
1.66802
0.643729
1.36186
2.36378
1.88609
1.05817
1.78097
1.7226
0.747671
1.79537
0
0
0
0
0
0

SCALARS edge_force float
LOOKUP_TABLE default
0.5
0.5
0.5
0.5
0.5
0.5
0.5
0.5
0.5
0.5
0.5
0.5
0.5
0.5
0.5
0.5
0.5
0.5
0.5
0.5
0.5
0.5
0.5
0.5
0.5
0.5
0.5
0.5
0.5
0.5
0.5
0.5
0.5
0.5
0.5
0.5
0.5
0.5
0.5
0.5
0.5
0.5
0.5
0.5
0.5
0.5
0.5
0.5
0.5
0.5
0.5
0.5
0.5
0.5
0.5
0.5
0.5
0.5
0.5
0.5
0.5
0.5
0.5
0.5
0.5
0.5
0.5
0.5
0.5
0.5
0.5
0.5
0.5
0.5
0.5
0.5
0.5
0.5
0.5
0.5
0.5
0.5
0.5
0.5
0.5
0.5
0.5
0.5
0.5
0.5
0.5
0.5
0.5
0.5
0.5
0.5
0.5
0.5
0.5
0.5
0.5
0.5
0.5
0.5
0.5
0.5
0.5
0.5
0.5
0.5
0.5
0.5
0.5
0.5
0.5
0.5
0.5
0.5
0.5
0.5
0.5
0.5
0.5
0.5
0.5
0.5
0.5
0.5
0.5
0.5
0.5
0.5
0.5
2
0.5
2
0.5
2
0.5
0.5
2
0.5
2
0.5
2
0.5
0.5
2
0.5
2
0.5
2
0.5
0.5
2
0.5
2
0.5
2
0.5
0.5
2
0.5
2
0.5
2
0.5
0.5
2
0.5
2
0.5
2
0.5
2
2
2
2
2
2
2
0.5
0.5
2
0.5
0.5
0.5
0.5
0.5
0.5
0.5
0.5
0.5
0.5
0.5
0.5
0.5
0.5
0.5
0.5
0.5
0.5
0.5
0.5
0.5
0.5
0.5
0.5
0.5
0.5
0.5
0.5
0.5
0.5
0.5
0.5
0.5
0.5
0.5
0.5
0.5
0.5
0.5
0.5
0.5
0.5
0.5
0.5
0.5
0.5
0.5
0.5
0.5
0.5
0.5
2
0.5
0.5
2
0.5
0.5
0.5
0.5
0.5
0.5
0.5
0.5
0.5
0.5
0.5
0.5
0.5
0.5
2
0.5
0.5
0.5
0.5
2
0.5
0.5
0.5
0.5
0.5
0.5
0.5
0.5
0.5
2
0.5
2
0.5
0.5
0.5
2
0.5
0.5
0.5
0.5
0.5
2
0.5
2
0.5
0.5
2
0.5
0.5
0
0
0
0
0
0
