# vtk DataFile Version 2.0
2D-vertex
ASCII
DATASET UNSTRUCTURED_GRID
POINTS 842 float
0.428275 -3.76347 0
2.87782 -3.57764 0
3.27529 -2.63162 0
2.25886 -1.55414 0
-0.00602286 -1.38804 0
-0.737633 -2.87223 0
3.80316 -2.6024 0
4.3846 -1.75292 0
3.46596 -0.228889 0
2.41683 -0.533495 0
1.25531 0.73639 0
-0.42784 1.22755 0
-1.20381 -0.0422654 0
-1.36032 -0.0796015 0
-1.89213 -1.7465 0
-1.3898 -2.63532 0
4.95417 -1.91508 0
5.77327 -1.04167 0
3.95248 0.512626 0
3.68207 0.448347 0
2.81427 1.41527 0
1.74868 1.33791 0
1.12993 4.96773 0
0.271789 4.95004 0
-0.563512 3.07999 0
-1.78286 2.17665 0
-1.71366 0.270941 0
-3.00815 -0.010224 0
-3.52944 -1.04114 0
-3.23333 -1.75403 0
6.84141 -1.03913 0
7.46889 -0.320625 0
7.30294 0.993771 0
5.09744 2.18532 0
5.57109 2.7618 0
3.23728 4.11626 0
2.48604 5.40768 0
1.59958 5.5729 0
0.698591 8.75378 0
-0.893769 8.80693 0
-0.594984 5.76693 0
-2.10678 4.83548 0
-3.16832 3.29521 0
-4.12587 3.3351 0
-4.87324 1.92742 0
-6.28565 1.62734 0
-6.57923 0.563042 0
-5.07426 -0.798291 0
7.72959 1.61702 0
7.39454 2.66188 0
6.64651 3.08874 0
5.92599 5.15825 0
3.58846 6.36867 0
3.52395 7.23815 0
2.08843 8.86266 0
2.63075 9.56654 0
-1.85774 10.1799 0
-1.76767 9.27698 0
-3.01435 7.94845 0
-2.69917 5.80122 0
-4.33337 6.118 0
-5.72379 4.80639 0
-7.652 3.32342 0
-7.51164 2.79037 0
8.3139 3.0657 0
8.31389 3.0682 0
6.84077 5.13002 0
7.28276 6.32879 0
6.02394 7.61204 0
6.23927 8.29275 0
5.46098 9.31481 0
5.19959 9.82042 0
-2.57392 12.4764 0
-2.82965 12.149 0
-6.03504 9.2618 0
-5.36731 8.47309 0
-6.09498 7.10284 0
-6.01311 6.93956 0
-8.63552 3.8339 0
-8.48699 3.48192 0
9.8481 3.36649 0
10.1697 4.31898 0
9.37122 5.30743 0
10.5411 5.72646 0
10.2435 7.25232 0
10.4358 7.96223 0
9.66423 12.6137 0
10.6804 14.7031 0
-9.61671 14.2977 0
-9.61632 14.2952 0
-10.0188 8.42548 0
-9.72786 7.90625 0
-10.0719 7.27253 0
-9.33398 6.17734 0
-10.1521 4.92359 0
-9.69426 3.94314 0
3.79577 -5.43462 0
4.99882 -4.88342 0
5.8336 -4.47564 0
8.17886 -2.87301 0
9.46536 -1.43183 0
10.7875 0.910011 0
10.8792 1.07913 0
11.575 2.15386 0
12.3527 4.08558 0
12.5592 4.87141 0
12.7249 8.39316 0
13.271 15.1178 0
-13.1981 14.7618 0
-12.6225 8.38809 0
-12.5396 7.11216 0
-12.1691 4.57077 0
-11.2955 2.6312 0
-10.4344 1.53324 0
-9.82929 0.813548 0
-8.92168 -0.505574 0
-6.98565 -2.63445 0
-4.90704 -4.02547 0
-2.80345 -5.00944 0
0.201294 -5.81195 0
12.5823 9.88974 0
8.5077 10.0783 0
-12.8931 10.849 0
-9.99226 11.6798 0
-0.313227 2.74224 0
0.981988 2.84051 0
-1.85006 4.80331 0
-1.09884 3.07237 0
4.49557 4.3156 0
4.9001 5.23875 0
0.398626 10.3516 0
0.174428 9.24976 0
-1.10489 7.11588 0
-2.29463 6.82196 0
5.92503 5.16055 0
5.09276 7.13697 0
4.11864 7.63911 0
4.12801 8.99554 0
2.1178 10.5805 0
2.11578 10.579 0
-2.35734 10.4101 0
-3.92795 8.65402 0
-3.48561 7.96417 0
-4.45652 6.70195 0
1.37506 0.0925787 0
-0.0733347 -0.905373 0
6.47947 1.23852 0
5.38928 -0.301675 0
5.09543 2.1868 0
3.07393 2.99767 0
-8.88386 10.058 0
-5.84863 9.95263 0
3.07143 2.99773 0
1.64081 3.67395 0
-9.34824 6.11828 0
-7.93855 5.50842 0
-0.768299 -2.88799 0
-1.17406 -5.57648 0
14.425 32.0065 0
16.7291 32.3692 0
1.23836 -3.41819 0
1.34384 -1.96169 0
2.51942 7.62138 0
1.3422 6.59542 0
8.32847 9.60011 0
5.46124 9.31731 0
9.03573 20.3578 0
-0.00708715 12.2801 0
-2.67571 -2.00888 0
-3.3754 -4.77056 0
-4.30376 1.00874 0
-5.19767 -0.176048 0
-5.5531 -3.64817 0
-4.48626 -1.19156 0
0.414773 7.06888 0
-0.502632 6.63629 0
9.34081 5.16536 0
7.75117 4.37334 0
5.58914 -1.57496 0
7.31634 -3.566 0
1.75463 -5.87608 0
1.78347 -3.84833 0
-6.14661 -0.0560759 0
-7.74098 -1.94253 0
-5.32507 3.70953 0
-6.65302 2.46409 0
7.56687 1.1255 0
10.0353 -0.547076 0
-12.4163 5.96005 0
-9.35843 6.13736 0
12.8389 6.91454 0
10.7425 6.7345 0
-2.74395 2.35801 0
-3.65609 0.998294 0
-9.40867 0.246842 0
-6.64052 1.89431 0
-3.53004 5.60906 0
-4.29007 3.62794 0
-6.76864 5.69386 0
-6.35004 4.89707 0
8.25601 6.49525 0
8.46376 6.97895 0
-0.852913 12.1245 0
-0.63614 11.0306 0
12.5868 9.89875 0
9.94216 11.2021 0
9.83407 13.5038 0
1.8189 11.1342 0
7.8605 8.24632 0
9.08386 8.95669 0
-7.24198 7.20416 0
-7.58009 7.95654 0
-2.29619 14.418 0
0.72645 13.5798 0
-9.92554 12.1771 0
-4.06008 11.9957 0
9.08254 8.95883 0
12.6001 9.42593 0
-10.7116 13.3332 0
-13.2575 13.7701 0
-12.6725 9.36518 0
-9.14652 9.62191 0
12.7625 17.8702 0
10.1248 16.2222 0
8.18561 10.5199 0
6.05712 10.713 0
-9.14659 9.61939 0
-7.26415 8.92345 0
2.20449 14.0988 0
3.95062 12.4579 0
-4.36434 10.4184 0
-3.59628 9.75566 0
4.67861 12.1985 0
3.7647 10.673 0
12.9424 11.5842 0
10.1531 11.7435 0
-2.91471 13.9991 0
-4.50754 12.9539 0
-13.199 26.8426 0
-0.0105615 15.1713 0
-6.44074 10.5052 0
-4.38249 12.2173 0
-12.7493 10.0789 0
-9.339 10.6592 0
5.84712 16.2452 0
7.99578 14.3478 0
-1.16844 13.9448 0
-0.676699 12.3294 0
-10.3606 17.5804 0
-13.5033 16.6714 0
14.3881 38.7078 0
2.13656 15.1735 0
-3.0159 16.623 0
-10.2916 17.9714 0
-10.6695 12.6596 0
-13.1191 11.8812 0
-6.52663 14.2814 0
-5.97578 13.1757 0
-6.31401 11.2391 0
-7.13005 12.1774 0
13.1923 13.2887 0
10.623 14.055 0
-11.154 19.1341 0
-14.0627 19.2036 0
5.85175 11.8093 0
4.67928 12.196 0
10.0425 15.3802 0
8.05694 14.9386 0
3.78325 13.5898 0
6.45929 15.6401 0
-2.10552 15.8435 0
-0.574508 16.1571 0
14.1353 20.5847 0
11.4667 21.5512 0
0.153687 15.1379 0
1.11007 15.8509 0
12.1569 23.3456 0
3.78327 15.7261 0
13.0491 12.4219 0
9.96222 12.9824 0
-8.37984 13.7854 0
-8.41281 12.9206 0
-9.23602 10.9937 0
-7.13599 11.8065 0
-9.93865 17.172 0
-6.13934 16.0505 0
11.1888 42.9026 0
12.0171 44.6478 0
1.59411 13.466 0
2.37907 11.9319 0
-3.91242 15.6323 0
-3.82183 14.4599 0
-13.326 15.8766 0
-10.1437 16.5188 0
-0.276326 17.6635 0
-0.37835 17.5954 0
7.53184 12.7074 0
7.11457 13.6143 0
8.4312 11.0353 0
7.39108 12.4223 0
-11.115 18.5311 0
-13.7404 17.5297 0
-2.66739 16.6168 0
-1.70082 18.0278 0
1.40831 16.9484 0
3.08008 16.9301 0
6.07905 13.7832 0
5.81348 14.3629 0
-7.41286 17.4043 0
-7.19243 17.8275 0
-9.05915 15.0376 0
-6.35128 15.2445 0
3.76303 15.6784 0
4.51587 14.449 0
-10.5522 21.0588 0
-3.85413 17.9036 0
14.6271 21.6981 0
12.3554 22.53 0
-16.1093 26.2003 0
-13.7713 26.1147 0
8.28333 16.7463 0
7.39237 15.7414 0
12.7807 18.2717 0
9.16943 19.528 0
3.8696 18.2033 0
5.69442 18.8723 0
1.11293 19.5357 0
3.24734 18.658 0
-0.923085 25.4358 0
-3.53535 24.1307 0
-3.17372 22.4458 0
-4.48037 19.7836 0
-6.14845 14.9619 0
-4.015 14.3496 0
-9.74997 19.9407 0
-8.20752 18.8316 0
7.684 23.4603 0
7.04735 20.6442 0
-13.209 15.115 0
-9.41391 15.5671 0
-9.37837 15.657 0
-7.17211 16.6444 0
-0.255349 19.7656 0
-0.0184972 19.4623 0
14.1574 31.0496 0
2.13165 22.8544 0
16.7031 27.8839 0
14.6606 27.9888 0
-14.9825 21.3324 0
-12.2757 21.876 0
-5.32712 16.3976 0
-5.14281 17.5951 0
7.79627 17.5447 0
6.62458 17.5176 0
1.19923 17.2882 0
1.79743 18.351 0
10.2873 15.8579 0
13.174 16.0988 0
12.7265 18.0252 0
8.29037 17.0632 0
-11.8436 22.8209 0
-4.45626 20.0823 0
-2.17283 19.0088 0
-3.49975 18.8878 0
3.63684 23.2485 0
4.25888 22.5796 0
-5.75736 18.1473 0
-5.61962 19.2408 0
3.87652 17.712 0
5.87269 16.7715 0
-1.90308 22.2822 0
-0.309272 23.6136 0
1.96203 28.4698 0
11.9311 30.7882 0
-9.59963 42.3897 0
-11.1471 43.6948 0
-3.63155 44.8587 0
-2.52398 24.9797 0
-14.2722 19.6506 0
-12.0324 21.3823 0
-1.77998 19.6764 0
-3.51063 20.6999 0
-7.40033 20.898 0
-5.88064 21.1597 0
13.0885 26.7088 0
11.5104 29.6027 0
4.86411 20.9569 0
6.51543 21.3168 0
11.434 21.6529 0
8.48924 22.3656 0
13.2199 19.0507 0
11.1636 21.128 0
-13.37 25.174 0
-3.74132 21.901 0
16.175 25.8755 0
14.2962 26.96 0
2.23443 20.5929 0
3.42716 19.8099 0
-15.5773 22.9844 0
-13.4329 24.0402 0
-1.78066 27.0892 0
4.00617 24.3996 0
0.262731 21.101 0
1.83548 21.5134 0
-8.19842 18.9265 0
-6.88223 19.8332 0
8.21437 18.6596 0
6.68055 19.4808 0
-1.44874 21.4905 0
-2.14899 20.3961 0
12.7241 18.0352 0
8.30268 18.3938 0
-2.60128 24.642 0
-1.36815 23.3989 0
-5.78388 21.7252 0
-4.78729 22.294 0
-4.50356 24.3918 0
-5.10514 23.6653 0
-14.068 19.2121 0
-10.4968 20.704 0
5.41519 24.4906 0
6.03334 23.39 0
-0.230732 29.7419 0
4.42921 44.4564 0
-8.17805 21.8761 0
-7.8347 22.9465 0
1.93098 45.5576 0
1.67562 47.583 0
-9.95456 28.258 0
-7.61859 30.3934 0
9.62433 20.8502 0
8.37296 22.0199 0
15.0762 22.7805 0
12.6172 23.7543 0
5.77116 22.8357 0
6.6586 21.698 0
2.27189 21.161 0
4.03065 21.7793 0
3.37197 25.0118 0
5.20702 28.4972 0
4.69078 20.2611 0
5.78751 19.2101 0
1.69024 23.2775 0
1.95522 24.5004 0
12.9216 18.5886 0
9.60211 20.6842 0
-5.57565 37.0733 0
-4.27008 32.0216 0
-13.6098 28.5473 0
-16.1469 28.5258 0
-0.143406 21.5933 0
0.328317 22.9267 0
-7.22616 23.086 0
-6.88994 23.8285 0
-9.73246 20.3192 0
-7.40022 20.8955 0
8.87541 25.8624 0
9.89343 24.1196 0
-16.0256 24.856 0
-13.6289 24.8568 0
-7.30166 24.6167 0
-7.23964 26.1967 0
4.18352 32.6604 0
8.31853 31.477 0
-13.6133 30.6039 0
-9.55707 29.2455 0
8.69629 26.3559 0
5.73761 27.4321 0
2.41883 28.0501 0
1.40619 26.2947 0
-4.68951 26.1762 0
-4.58253 26.2359 0
12.2419 42.093 0
13.6987 43.2574 0
-0.0397464 24.6128 0
1.27862 25.0647 0
-9.3927 23.8691 0
-9.51621 24.3336 0
6.02279 37.4482 0
5.12432 41.8673 0
-3.19663 25.8616 0
-2.60431 26.9867 0
14.3736 28.4035 0
12.2214 28.4483 0
-7.46451 44.3995 0
-7.97195 46.0716 0
-8.79503 42.7673 0
-6.64434 35.6307 0
10.1648 23.6169 0
9.75944 22.6312 0
-10.437 26.4289 0
-8.98054 24.8956 0
12.8559 26.1143 0
10.5121 25.5692 0
-1.44345 38.0175 0
-0.463453 31.4338 0
-9.8163 21.8584 0
-10.2743 22.8936 0
16.8088 29.49 0
14.8397 29.4093 0
15.4746 23.7204 0
13.1875 24.9058 0
14.6234 36.2639 0
11.8169 34.7944 0
-1.65188 29.7653 0
-1.34381 28.0443 0
-13.2921 36.3932 0
-15.1689 36.5749 0
3.45115 25.9358 0
2.23698 26.7056 0
7.70057 30.4214 0
7.19828 27.2885 0
5.96838 25.1191 0
4.943 26.0442 0
-5.79596 29.4152 0
-5.13377 30.0559 0
8.13972 24.2271 0
7.9325 24.6806 0
5.84554 30.173 0
5.84831 32.7446 0
-13.5042 28.7422 0
-10.5788 28.1514 0
14.8886 38.4962 0
16.4741 39.3669 0
-8.6518 27.297 0
-5.70257 28.6927 0
-11.1881 38.6616 0
-9.21754 34.3459 0
3.19342 32.2215 0
2.74729 32.5364 0
-16.1305 27.4108 0
-13.4031 27.3149 0
-16.1288 30.0011 0
-14.1486 29.8833 0
-0.391206 40.0572 0
[...]
CELL_DATA 422
SCALARS cell_division_count float
LOOKUP_TABLE default
1
0
1
0
0
0
1
0
0
1
1
1
1
1
1
1
0
1
1
1
1
1
1
0
1
1
1
1
1
1
1
1
2
4
3
1
1
0
0
1
1
0
0
0
1
2
3
0
1
0
0
1
1
1
1
1
0
0
3
0
1
2
3
1
1
1
1
1
1
1
2
2
1
1
1
1
2
1
1
1
3
1
1
2
9
1
1
1
1
1
1
1
1
1
1
1
1
1
1
1
1
1
2
3
5
2
1
3
5
2
2
2
5
3
2
4
2
3
5
5
6
3
3
6
3
4
6
9
3
5
4
4
8
5
6
6
5
4
5
14
5
5
5
7
5
4
6
4
10
5
3
4
6
6
6
7
6
6
11
7
8
7
6
7
8
16
11
6
8
9
4
7
8
13
6
7
7
8
8
3
6
12
10
11
9
7
11
13
9
14
8
11
10
11
9
9
5
14
6
10
8
13
10
10
8
11
6
10
11
14
8
11
13
11
9
12
9
8
9
11
13
9
11
6
16
13
11
12
11
13
8
13
13
12
15
14
10
8
12
13
13
11
12
11
15
9
14
15
14
12
7
9
14
15
10
14
14
14
13
13
12
12
8
12
16
14
8
9
16
14
15
14
14
14
13
10
14
14
14
13
14
15
14
8
15
9
9
14
13
13
14
12
12
10
12
12
14
15
7
13
13
15
11
14
14
14
8
13
15
12
14
14
15
15
13
14
15
16
12
15
15
9
11
14
15
14
14
15
14
14
10
7
11
13
16
14
15
13
16
14
13
16
15
12
15
14
15
13
10
9
14
15
13
15
14
14
10
15
15
15
14
15
14
12
11
14
14
16
16
15
14
15
15
15
16
8
16
15
15
16
13
14
10
15
15
13
11
16
14
14
14
15
15
9
16
15
14
12
16
14
15
14
10
15
16
16
14
16
8
10
11
14
15
11
15
15
14
16
16
15
16
15
SCALARS cell_time float
LOOKUP_TABLE default
2161
2.22229e+13
2181
4.48239e+13
2.67348e+11
1.25633e+10
2191
2.68224e+09
9.19769e+11
2181
2181
2171
2141
2191
2111
2151
1.22817e+06
2191
2161
2191
2191
2091
2131
25973.4
2191
2191
2191
2191
2191
2081
2141
2081
2041
1781
1931
2031
2171
1.00108e+18
2.94533e+15
2141
2131
107273
3535.76
2247.34
2121
2021
1821
2238.01
2131
4889.01
2506.18
2111
2151
2161
2171
2141
1.12104e+13
23356.3
1611
4227.96
2141
2061
1881
2191
2191
2191
2191
2191
2191
2191
2071
1951
2191
2181
2181
2181
2011
2171
2171
2171
1311
2161
2161
2021
941
2161
2151
2151
2141
2141
2141
2141
2141
2131
2131
2131
2121
2111
2111
2091
2081
2081
2071
1941
1761
2041
2031
1881
1661
2021
2021
2021
1311
1601
2011
1631
1951
1941
1671
1631
1521
1901
1881
1511
1881
1601
1611
1301
1821
1671
1801
1801
581
1611
1501
1531
1731
1511
1701
531
1671
1671
1661
1361
791
1631
1401
1381
1031
1611
1601
1601
1601
1591
1531
1331
1521
1511
871
941
861
1321
911
1251
1321
31
1001
1401
1391
941
1381
1361
1361
211
721
1191
1331
1051
1321
1311
1041
731
1181
941
1261
1251
881
671
361
71
1001
1051
1171
761
941
741
1141
531
1121
1121
521
541
1091
1061
1051
1051
1041
1031
1011
551
1001
991
271
981
201
431
941
721
941
941
661
941
931
911
91
91
881
881
871
651
861
411
401
371
371
571
801
21
781
771
161
771
391
171
111
741
531
381
71
731
421
511
91
411
91
411
411
411
481
651
471
471
101
431
51
151
581
581
31
571
1
41
551
351
541
21
541
531
531
81
531
51
531
521
391
331
511
391
391
481
31
471
461
451
431
431
51
281
421
421
411
411
21
411
411
411
221
401
131
391
131
221
391
131
391
211
381
101
371
371
41
361
361
191
11
351
61
61
181
21
171
321
81
311
1
291
281
271
81
131
261
31
251
241
61
241
101
221
221
61
221
91
211
11
211
41
41
91
21
191
191
41
181
51
21
11
151
51
11
131
131
131
1
131
11
101
101
101
101
91
91
91
91
91
91
81
81
81
71
71
61
61
61
61
51
51
51
51
51
41
41
41
41
41
31
31
31
31
21
21
21
21
21
21
11
11
11
11
11
1
1
1
SCALARS cell_area float
LOOKUP_TABLE default
3.24165
3.29978
3.29316
3.35574
3.35109
3.34344
3.32663
3.37427
3.34839
3.28145
3.33645
3.28217
3.38636
3.31912
3.30565
3.32955
3.39822
3.28886
3.34636
3.3973
3.39194
3.33935
3.33891
3.37176
3.35853
3.37613
3.43977
3.40245
3.39126
3.32914
3.2466
3.29696
3.35047
3.33627
3.44577
3.24932
3.34474
3.25229
3.26075
3.24827
3.23641
3.27754
3.26144
3.27806
3.21963
3.28422
3.25564
3.26242
3.25844
3.24751
3.26724
3.27282
3.21602
3.25672
3.24439
3.24184
3.20927
3.2167
3.268
3.19549
3.24571
3.30615
3.26836
3.28021
3.33709
3.28483
3.39876
3.35178
3.27999
3.35718
3.45197
3.35188
3.35687
3.28658
3.24823
3.27471
3.34141
3.35124
3.23077
3.22168
3.22076
3.2583
3.33514
3.33077
3.36849
3.22218
3.29626
3.25182
3.37011
3.28734
3.22416
3.20342
3.21547
3.30351
3.25108
3.24388
3.25833
3.32379
3.26254
3.30003
3.28929
3.26314
3.40146
3.23232
3.29456
3.24015
3.32829
3.38581
3.29117
3.27857
3.25809
3.27132
3.27523
3.29292
3.24523
3.31612
3.35654
3.40417
3.25532
3.42619
3.30173
3.34957
3.271
3.34737
3.40631
3.26252
3.44219
3.39674
3.2157
3.27996
3.33469
3.20754
3.28722
3.37021
3.31649
3.35408
3.3659
3.26595
3.36594
3.30636
3.24994
3.28178
3.31545
3.27382
3.24599
3.34846
3.3998
3.26992
3.36806
3.31435
3.30047
3.2343
3.37218
3.36055
3.38477
3.38726
3.33887
3.30841
3.35487
3.27714
3.26094
3.41194
3.28986
3.31979
3.36817
3.37256
3.3638
3.32835
3.29861
3.36195
3.27182
3.32557
3.43077
3.28632
3.27814
3.23257
3.36135
3.37007
3.3897
3.24025
3.29885
3.31045
3.433
3.38577
3.39009
3.31684
3.38136
3.39164
3.22918
3.31009
3.27818
3.40794
3.40117
3.28871
3.35604
3.27044
3.2391
3.29223
3.24283
3.34161
3.26351
3.32749
3.41731
3.35261
3.30312
3.3877
3.29075
3.34249
3.38182
3.36117
3.31028
3.38783
3.36898
3.3511
3.26941
3.30882
3.34362
3.28085
3.37036
3.3682
3.43597
3.35118
3.39442
3.2822
3.35602
3.28634
3.39441
3.32469
3.30256
3.36373
3.22201
3.35299
3.41281
3.26216
3.33677
3.39914
3.41974
3.29059
3.38342
3.38161
3.29534
3.36085
3.26775
3.30728
3.31989
3.33469
3.37942
3.2939
3.29386
3.3152
3.29636
3.25369
3.29345
3.35502
3.29039
3.3784
3.29735
3.34071
3.38978
3.33389
3.31922
3.30493
3.227
3.35258
3.34573
3.36904
3.27781
3.28538
3.33699
3.35248
3.358
3.35899
3.37218
3.37014
3.36997
3.30259
3.33598
3.33779
3.35591
3.25647
3.26407
3.31292
3.35122
3.26665
3.36648
3.23336
3.30493
3.28909
3.31599
3.33355
3.32902
3.30696
3.34658
3.2881
3.37368
3.34557
3.35044
3.37228
3.31313
3.36768
3.32446
3.36142
3.30581
3.33335
3.33042
3.31509
3.25829
3.37677
3.34629
3.30503
3.32391
3.32601
3.29682
3.32672
3.36185
3.27588
3.39231
3.35263
3.3473
3.33536
3.33129
3.28337
3.2922
3.31254
3.30881
3.33238
3.28199
3.30065
3.35812
3.28809
3.2927
3.27077
3.2523
3.30392
3.3561
3.35006
3.334
3.26905
3.34755
3.38248
3.31437
3.26243
3.27463
3.29809
3.27094
3.32208
3.37108
3.30702
3.23296
3.34333
3.36445
3.36446
3.31901
3.32172
3.28767
3.35454
3.2979
3.33002
3.31383
3.32236
3.31719
3.2763
3.34161
3.3142
3.33307
3.26891
3.29902
3.31226
3.31252
3.30717
3.3214
3.30647
3.33978
3.31953
3.26926
3.27507
3.35271
3.28407
3.32184
3.32865
3.30481
3.27771
3.29624
3.32569
3.35077
3.36366
3.29302
3.33441
3.28076
3.27898
3.28946
3.27419
3.26193
3.31507
3.2677
3.33655
3.28677
3.30014
3.36054
3.26099
3.29645
3.25917
3.33143
3.304
3.341
3.31153
3.31283
3.33924
3.28841
3.28996
3.28859
3.32021
3.32484
3.29763
3.28055
3.28047
3.29344
3.3147
3.31756
3
3.26242
3.38248
SCALARS cell_perimeter float
LOOKUP_TABLE default
6.92985
6.94406
6.96285
7.20124
7.13023
6.81921
7.07915
7.65554
6.93868
6.92665
7.39049
7.00329
6.79963
7.24382
7.04574
6.79621
7.17832
6.9696
6.92719
6.99672
6.94163
7.27242
7.24624
7.58307
7.59229
6.95383
7.99964
7.122
6.8993
7.07259
6.95018
7.05086
8.19725
7.03327
7.07407
7.34527
7.91042
7.52499
7.83343
7.64432
8.27783
8.67698
8.20045
7.77232
7.38595
9.59213
8.03288
7.67173
8.06209
7.66679
8.14258
8.46169
7.79105
8.07918
7.67734
7.21863
7.44045
7.39336
8.60424
7.32702
7.73562
9.67504
8.63135
7.03618
7.15018
7.24204
6.9067
7.08063
7.18138
6.86704
7.81418
7.06377
7.17137
7.07755
7.24077
7.21847
7.80252
7.26813
6.93617
7.87819
8.22451
6.79108
7.01955
7.88046
7.55195
7.98676
6.82482
7.98841
7.07495
6.99944
7.80303
7.31509
7.65975
7.13262
7.93892
7.98337
7.37102
6.94692
8.24038
7.18962
7.1727
6.94612
7.12789
8.04584
7.19412
7.03267
6.85325
7.3669
7.31372
8.59881
8.64814
8.5987
10.04
7.21404
7.24631
7.06275
6.92025
7.46265
8.24794
7.01929
7.68031
7.27297
8.97567
7.2139
7.24576
8.36463
7.12926
7.05654
7.72235
7.02779
7.29294
7.78619
7.8154
7.37444
7.26954
7.09915
7.04645
7.85362
6.91396
7.19568
8.19636
6.90785
7.58322
7.5879
7.30702
7.22126
7.29079
9.08819
7.08466
7.31297
7.28552
8.02832
7.07191
7.18819
6.83922
6.8571
8.02701
7.00936
7.59438
7.69079
7.51543
6.9074
9.59023
7.34408
7.06132
7.09063
6.9811
7.19845
7.42258
7.17625
9.35048
7.89163
7.10653
7.36105
7.23848
7.96788
7.01181
7.1074
7.15064
7.97318
10.664
6.89422
7.06825
7.10002
6.88958
7.37213
6.89239
6.91564
7.30673
6.97814
9.05938
7.01529
7.46869
7.15829
6.93674
7.12721
8.06803
7.19635
7.38263
6.98407
8.16529
7.00605
7.24845
7.08841
7.09994
6.89808
10.0736
7.05845
6.97698
6.95645
9.64374
6.94364
7.05586
7.09672
7.40532
7.0043
7.50628
7.7882
7.07701
7.09017
7.06614
7.0913
7.01529
9.13014
7.35572
7.58713
7.06962
7.14542
7.41507
7.15483
7.55124
7.17373
6.95802
7.18919
7.18953
6.89329
6.99997
7.35882
6.90449
7.09824
6.86294
6.93762
7.37853
7.57354
7.02012
6.94262
6.82207
7.09633
7.05348
7.01998
7.372
7.81727
7.12589
6.99181
7.20382
7.20883
7.14339
7.45856
6.83789
7.16712
7.27276
7.47135
7.28196
7.19079
7.07473
6.9814
7.71968
7.52847
6.92231
7.1078
7.02762
7.08017
6.95003
7.4683
6.94578
7.41765
7.01915
7.19593
7.29691
7.03101
7.34905
6.79962
6.94839
8.30399
6.81868
7.33415
7.9066
7.25562
7.09306
7.07465
6.88194
7.56215
7.22174
7.26851
7.07449
6.91922
7.01556
7.01918
7.52095
6.99701
7.12956
6.88137
7.57505
7.15307
7.11358
7.13665
7.4891
6.96531
6.96395
7.58286
7.17772
7.21738
6.98846
6.80992
7.16054
6.94801
6.97744
6.99665
6.84379
7.16009
6.81324
7.16199
7.30153
6.91187
7.0794
7.12722
7.11218
7.23899
6.84444
6.98638
7.17151
7.11908
7.34516
6.95951
6.76823
6.87389
7.38306
7.26556
6.92284
6.90633
6.87065
6.90519
7.14719
7.76488
7.25328
7.05613
7.24779
6.90351
7.30534
8.23608
7.08051
6.98678
7.37339
7.09429
7.06577
7.0195
7.65025
6.8675
7.02108
6.86185
6.84248
6.97767
6.76275
7.73413
7.28886
7.25883
7.02233
6.86071
7.33767
6.96981
6.938
7.03559
6.86407
6.86938
6.93258
7.23446
7.66546
7.01437
6.95243
6.96555
7.95957
6.86454
7.34124
6.93047
6.98805
7.24627
7.24091
6.89641
6.97663
6.92296
7.08037
7.04108
7.11647
7.90678
6.98257
6.88256
7.06915
7.47604
6.80361
7.01675
7.00037
6.90466
7.724
6.93655
6.97841
7.03336
6.80699
6.99831
7.36308
7.35995
7.45154
7.03745
6.96263
7.24533
7.06098
6.94647
7.28368
7.17318
6.96188
17
3.26891
3.39194
SCALARS cell_frequency_modifier float
LOOKUP_TABLE default
1.23677e+18
3.75223e+15
3.10673e+15
8.38524e+14
2.35669e+14
3.92309e+13
4.2154e+11
4.82573e+12
3.26832e+14
1.76873e+16
5.52615e+12
3.63813e+14
8.46806e+09
2.06865e+11
3.69494e+13
1.39608e+14
2.26442e+12
9.48693e+11
6.40142e+09
7.66226e+07
7.83601e+09
1.17133e+11
1.51365e+12
1.42273e+11
6.68559e+09
3.93659e+08
5.00947e+07
1.2039e+08
2.93225e+09
1.9708e+10
3.51752e+13
1.00278e+10
2.46763e+08
2.52709e+07
1.25982e+06
4.22532e+11
7.56755e+09
8.70271e+18
2.62479e+18
4.09774e+17
4.6366e+15
8.75179e+14
3.16626e+14
1.05649e+13
2.18809e+12
2.38298e+10
1.69446e+09
2.16627e+11
1.16578e+12
1.43414e+14
4.00481e+14
1.22983e+15
4.44567e+17
3.15543e+18
10000
10000
1.52008e+17
8.05652e+13
1.05502e+07
3.73081e+13
9.40865e+16
1.20155e+08
5.31457e+09
1.00232e+15
5.01696e+11
3.25653e+13
5.58433e+07
7.93813e+08
1.64566e+12
5.78623e+08
9.06304e+06
2.16708e+07
1.13876e+09
1.10167e+16
3.77805e+15
1.08561e+14
1.11804e+08
1.2357e+11
1.12808e+13
1.23281e+19
1.33796e+07
1.59561e+18
1.38251e+09
9.55732e+07
960.254
2.68725e+18
1.20646e+14
6.89658e+17
6.72279e+08
1.3725e+13
1.73907e+18
10000
3.37779e+16
1.00926e+12
1.65395e+16
4.432e+12
3.48692e+11
4.44012e+12
4.71761e+15
2.47983e+11
1.80339e+12
1.36077e+12
8.60988e+06
3.95323e+09
3.03393e+06
2.01025e+11
1.00408e+09
706323
7.69852e+07
6.78771e+10
1.48929e+08
4.42811e+10
7.12346e+06
1.30693e+08
8.42683e+10
3.91852e+06
1.22804e+08
6.79727e+06
1.05918e+09
119116
72197.3
2.03109e+07
1.53223e+10
204780
1.1296e+06
4.62871e+06
39954.8
12158.6
5.23145e+08
3.55746e+08
6.5187e+06
1.21071e+08
3209.17
2.41847e+06
240411
1.25106e+06
200642
174744
350825
413.495
3.62593e+08
3.84743e+08
4.89999e+07
1.14241e+07
106.698
4.0861e+06
132942
2.79794e+07
89.0152
3.51967e+06
2.78616e+07
2.00459e+06
34137.2
83723.5
282010
23920.1
520026
1.09974e+06
1124.31
71656.6
12776.1
34699.2
69811.5
33854.6
8420.71
0.347293
221.269
1.21984e+06
33280.6
321.596
6.1403e+07
218565
5182.48
624.833
2221.97
264786
39311.4
7746.63
13981.5
3.81655e+07
83637.7
1526.38
2132.39
372.41
6441.12
103950
293.4
37.0997
124.078
1.35362
445051
1074.25
1505.22
458.147
2021.51
75114
386446
1028.75
4703.83
5437.66
57231.5
33.5021
1269.07
7532.79
12762
596.593
111911
256.951
731.1
46.5041
8869.04
145.408
2.50911
630.787
164.872
28.7649
817.515
33291.4
512.976
1239.69
40.2531
5713.34
107.885
586223
0.803776
183.815
348.717
507.958
10832.6
106.456
28275
102.998
4.54815
1362.48
24.5832
12.0918
43.679
5.88387
106.112
111.749
2.96889
35.1977
1758.81
1.92119
0.839285
293.648
45.7838
172.962
4.07622
756.042
29.8123
17657.7
4.56083
3.26047
6.41488
14.9428
34.1738
61.9139
5.82707
110.016
6.55892
39.3602
123.674
19.1251
0.693391
1.16906
5862.22
1746.52
0.617184
9.20108
0.55774
0.424979
16.345
2.26339
39.7337
2.30149
40.0776
73.3893
179.688
124.138
9909.91
2.52687
13.5641
107574
3.62688
158.034
127.104
80.4985
5.88518
31.4118
2.79803
69.0048
7.67451
228.349
5.76975
23.1701
2.57346
1.60784
7.01389
3.27264
72.3285
4.89457
1.50948
27.885
18.5105
65.8814
220.028
5.71598
1.277
15.5391
0.781437
1.2411
24.5657
4.82727
2.68723
186.739
7.48961
0.951114
7.78861
11.7163
0.658515
108.69
25.6474
1.92226
1.24725
5.94981
100.259
1.82662
1.13163
37.1952
5.89782
107.031
162.81
3.54304
0.432908
2.77164
2.08184
836.713
1.8352
0.345571
1.37392
100.637
469.807
7.26958
165.888
3.79345
0.410777
2.34514
137.146
2.17071
1.23431
0.420845
4.10907
1.8249
181.282
0.456789
3.35524
0.690784
1.77162
1.54512
1.08772
126.328
1.02817
1.523
0.758857
101.463
4.22816
1.37002
1.59938
4.39759
0.875793
15.2134
0.641595
1.1873
103.829
161.008
1.55901
119.98
1.20576
1.73376
3.79565
132.731
2.87495
0.754137
0.542243
0.418274
5.80678
1.85919
101.825
136.557
8.91928
110.163
151.676
2.91477
152.313
2.36169
339.825
2.88248
0.413214
107.877
2.82581
109.743
0.930479
2.3374
0.609679
1.14328
3.26484
0.621392
19.6038
8.77881
18.5522
0.943552
1.51472
2.59156
100.387
189.011
3.63246
1.26802
1.03989
1
1
1
SCALARS cell_area_modifier float
LOOKUP_TABLE default
100
1.98109
3.75785
0.429083
0.469994
0.52277
0.7268
0.344431
0.4892
100
0.588897
100
0.326961
0.870197
1.43739
0.679643
0.308883
11.4795
0.503909
0.310026
0.315869
0.553866
0.561286
0.353139
0.408183
0.343021
0.289665
0.3022
0.318268
0.6852
100
2.44315
0.475326
0.593064
0.287676
100
0.516328
100
100
100
100
100
100
100
100
100
100
100
100
100
100
100
100
100
100
100
100
100
100
100
100
1.38972
100
100
0.572796
100
0.307749
0.457174
100
0.414236
0.286692
0.454693
0.416294
100
100
100
0.539601
0.459682
100
100
100
100
0.605929
0.6635
0.368676
100
2.76568
100
0.36074
279.333
100
100
100
1.63353
100
100
100
0.780988
100
1.93533
9.01075
100
0.303294
100
3.0696
100
0.708369
0.328241
5.1411
100
100
100
100
4.12808
100
0.928018
0.418372
0.301114
100
0.293726
1.77167
0.483555
100
0.494979
0.300036
100
0.288667
0.311177
100
100
0.610342
100
100
0.357661
0.917853
0.438055
0.38039
100
0.378671
1.36705
100
100
0.949037
100
100
0.486361
0.305505
100
0.373607
1.01823
1.84989
100
0.350188
0.402304
0.330833
0.32569
0.565071
1.24517
0.433523
100
100
0.297903
7.41593
0.843907
0.371949
0.347286
0.385642
0.702431
2.13232
0.391041
100
0.746215
0.2927
100
100
100
0.396593
0.3623
0.321936
100
2.0794
1.15906
0.291681
0.329532
0.319482
0.907909
0.337495
0.317064
100
1.19203
100
0.298965
0.304395
13.3016
0.422592
100
100
4.57923
100
0.53274
100
0.714408
0.2958
0.447411
1.666
0.324429
5.47712
0.529375
0.334798
0.398478
1.17532
0.323178
0.367061
0.467373
100
1.20924
0.519529
100
0.356141
0.370305
0.290669
0.464781
0.312337
100
0.424734
100
0.313505
0.759746
1.73499
0.387425
100
0.440357
0.296847
100
0.580735
0.306623
0.294759
5.86014
0.332144
0.336141
2.96113
0.400382
100
1.26395
0.835494
0.61482
0.33886
3.18631
3.31225
0.959908
2.67732
100
3.44856
0.431292
6.30075
0.340235
2.37394
0.546641
0.320704
0.628657
0.861254
1.51537
100
0.449812
0.510043
0.36546
100
100
0.576738
0.45224
0.412199
0.406205
0.351658
0.359194
0.363873
1.6998
0.597292
0.568907
0.426898
100
100
1.07024
0.462217
100
0.376968
100
1.48845
10.0964
0.93841
0.633409
0.690849
1.32385
0.500897
25.3939
0.345852
0.513166
0.478038
0.348731
1.05675
0.37528
0.766697
0.394724
1.41315
0.638233
0.668795
0.971031
100
0.341623
0.506957
1.46248
0.773777
0.733158
2.51652
0.72055
0.392874
100
0.314683
0.445035
0.49792
0.601579
0.658288
100
4.84393
1.0983
1.22694
0.648105
100
1.80994
0.410181
36.4348
4.34197
100
100
1.60229
0.420472
0.48078
0.623976
100
0.492073
0.333466
1.006
100
100
2.18799
100
0.795821
0.354634
1.30327
100
0.526051
0.383875
0.382125
0.879328
0.811229
64.4615
0.435777
2.24665
0.674175
1.04359
0.788335
0.898178
100
0.536148
1.03075
0.643131
100
2.02906
1.12786
1.11288
1.28331
0.819159
1.3451
0.55023
0.852492
100
100
0.442684
100
0.803452
0.696592
1.54328
100
2.86007
0.739629
0.472645
0.389224
3.93427
0.619364
100
100
8.13592
100
100
0.982415
100
0.584787
100
1.89165
0.404245
100
2.59443
100
0.653157
1.57223
0.543098
1.14325
1.08409
0.557552
19.4884
6.81301
15.8113
0.827246
0.75292
2.30854
100
100
3.59657
0.994069
0.888653
1
1
1
SCALARS cell_Gaussian_modifier float
LOOKUP_TABLE default
1.23677e+16
1.89402e+15
8.26731e+14
1.95422e+15
5.0143e+14
7.50444e+13
5.79995e+11
1.40107e+13
6.68095e+14
1.76873e+14
9.38391e+12
3.63813e+12
2.58993e+10
2.37722e+11
2.57058e+13
2.05414e+14
7.33098e+12
8.26427e+10
1.27035e+10
2.47149e+08
2.48078e+10
2.11482e+11
2.69676e+12
4.0288e+11
1.63789e+10
1.14762e+09
1.7294e+08
3.98378e+08
9.21314e+09
2.87624e+10
3.51752e+11
4.10446e+09
5.19144e+08
4.26107e+07
4.3793e+06
4.22532e+09
1.46565e+10
8.70271e+16
2.62479e+16
4.09774e+15
4.6366e+13
8.75179e+12
3.16626e+12
1.05649e+11
2.18809e+10
2.38298e+08
1.69446e+07
2.16627e+09
1.16578e+10
1.43414e+12
4.00481e+12
1.22983e+13
4.44567e+15
3.15543e+16
100
100
1.52008e+15
8.05652e+11
105502
3.73081e+11
9.40865e+14
8.64602e+07
5.31457e+07
1.00232e+13
8.75872e+11
3.25653e+11
1.81457e+08
1.73635e+09
1.64566e+10
1.39684e+09
3.16125e+07
4.76603e+07
2.73548e+09
1.10167e+14
3.77805e+13
1.08561e+12
2.07197e+08
2.68816e+11
1.12808e+11
1.23281e+17
133796
1.59561e+16
2.28164e+09
1.44044e+08
2604.6
2.68725e+16
4.36225e+13
6.89658e+15
1.86361e+09
4.91349e+10
1.73907e+16
100
3.37779e+14
6.17841e+11
1.65395e+14
4.432e+10
3.48692e+09
5.68527e+12
4.71761e+13
1.28135e+11
2.00138e+11
1.36077e+10
2.8388e+07
3.95323e+07
988379
2.01025e+09
1.41746e+09
2.15184e+06
1.49744e+07
6.78771e+08
1.48929e+06
4.42811e+08
71234.6
3.16594e+07
8.42683e+08
4.22246e+06
2.93527e+08
2.25738e+07
1.05918e+07
405536
40751
4.20033e+07
1.53223e+08
413713
3.76489e+06
46287.1
138411
39072.8
5.23145e+06
3.55746e+06
1.06804e+07
1.21071e+06
32.0917
6.7619e+06
261927
2.85594e+06
527462
1747.44
926464
302.473
3.62593e+06
3.84743e+06
5.16312e+07
114241
1.06698
8.40137e+06
435154
279794
238.259
3.45667e+06
1.50612e+07
20045.9
97482.6
208110
852423
73444.4
920284
883208
2593.42
716.566
127.761
116478
9413.73
40116.5
22639.5
1.00002
573.768
1.7366e+06
15607.7
822.412
614030
292898
17705.8
6.24833
22.2197
2647.86
99122.8
21381.8
43429.5
381655
40221.9
1316.92
7310.68
1130.12
20161.2
114493
869.346
117.01
1.24078
1.13556
4450.51
3593.24
4944.95
34.443
4783.59
751.14
3864.46
224.655
47.0383
10207
572.315
46.895
4290.3
16836.4
7660.26
1838.9
20432.5
485.386
2183.7
116.704
7546.09
449.931
6.83568
1349.64
1.64872
23.7877
1573.57
332.914
1440.37
3347.76
138.484
12292.5
345.414
5862.23
1.89242
1.83815
1112.32
668.589
6243.61
274.778
282.75
233.896
15.3215
13.6248
42.3312
39.4355
148.185
1.00405
319.477
332.445
1.00262
87.9102
17.5881
1.51999
1.00454
477.616
135.112
54.2827
1.23065
787.619
11.1351
176.577
1.32253
7.55979
1.01811
43.9189
14.3954
113.263
18.1696
175.002
7.61554
25.9739
1.23674
42.5179
1.35948
3.19888
58.6222
17.4652
1.07013
20.3456
1.35308
1.04622
46.48
6.30129
109.197
1.35398
67.0989
129
420.916
1.24138
99.0991
2.36103
29.3457
1075.74
9.62119
1.58034
85.393
7.973
6.27144
49.5917
4.05014
52.1242
15.3216
8.99227
16.6827
45.1513
5.38338
4.61055
6.63725
8.72054
94.3378
12.4
1.06816
43.691
27.6774
67.8468
2.20028
16.7319
2.51895
10.6252
1.0099
1.69281
9.7618
6.69942
6.83993
1.86739
23.8005
2.13717
15.6423
19.4759
1.00035
1.0869
5.29474
1.75022
1.01655
9.18031
1.00259
1.00922
2.75886
1.02087
1.35833
1.07031
1.6281
2.21123
1.02958
5.76489
3.33641