# vtk DataFile Version 3.0
2D-vertex
ASCII
DATASET UNSTRUCTURED_GRID

POINTS 330 float
0.23991 -2.02158 0
2.82884 -1.8212 0
3.21506 -0.919065 0
2.23897 0.128498 0
-0.158156 0.324651 0
-0.913574 -1.07563 0
3.82557 -0.8859 0
4.40646 -0.0250897 0
3.54243 1.39534 0
2.39395 1.07058 0
1.22268 2.23309 0
-0.547573 2.81078 0
-1.35677 1.59142 0
-1.61812 1.53734 0
-2.14162 0.0503634 0
-1.67144 -0.815968 0
4.99711 -0.179298 0
5.90105 0.744237 0
4.11967 2.12554 0
3.75361 2.03875 0
2.96063 2.92832 0
1.76057 2.85612 0
1.23717 6.13668 0
0.09892 6.0929 0
-0.625342 4.35669 0
-2.01448 3.6576 0
-2.01099 1.94376 0
-3.39936 1.68865 0
-3.88109 0.817563 0
-3.60311 0.111961 0
7.00545 0.767897 0
7.69029 1.60141 0
7.45314 2.87863 0
5.31278 3.8137 0
5.8537 4.45256 0
3.45385 5.52689 0
2.77109 6.60738 0
1.70442 6.75721 0
0.609827 9.47165 0
-1.12209 9.41594 0
-0.74633 6.88266 0
-2.55698 6.10487 0
-3.51607 4.84541 0
-4.64852 4.95274 0
-5.33556 3.82855 0
-6.8027 3.62039 0
-7.10095 2.70509 0
-5.52523 1.17411 0
7.97999 3.67419 0
7.66678 4.56131 0
7.02684 4.86035 0
6.28965 6.82592 0
3.88085 7.71938 0
3.76913 8.41932 0
2.24632 9.68729 0
2.81144 10.5424 0
-2.17396 10.6622 0
-2.16169 10.0598 0
-3.34823 9.03096 0
-3.08943 7.11727 0
-4.8988 7.69158 0
-6.24816 6.66873 0
-8.24336 5.59987 0
-8.14449 4.95034 0
8.61762 5.07232 0
8.63814 5.16007 0
7.27463 6.95168 0
7.56347 8.33929 0
6.37597 9.26533 0
6.53519 10.1256 0
5.84126 10.8509 0
5.8399 11.2754 0
-2.76726 12.9399 0
-2.97473 12.7733 0
-6.56412 11.4102 0
-5.94846 10.1803 0
-6.73357 9.22341 0
-6.59707 8.78879 0
-9.1613 6.38787 0
-9.01426 5.84947 0
10.0916 5.55537 0
10.384 6.68684 0
9.65306 7.69055 0
10.6649 8.15907 0
10.3158 9.79265 0
10.5006 10.7176 0
8.76892 15.8744 0
7.64055 19.0399 0
-7.4659 18.7736 0
-7.77636 17.9952 0
-10.2295 11.7406 0
-9.95378 10.9208 0
-10.3797 10.3717 0
-9.70378 9.01988 0
-10.4853 7.80935 0
-10.11 6.61901 0
3.6953 -3.62307 0
4.95494 -3.05736 0
5.86366 -2.61248 0
8.29936 -0.917076 0
9.59899 0.603381 0
10.8993 3.02359 0
11.0635 3.34782 0
11.7559 4.55087 0
12.4371 6.60417 0
12.608 7.52694 0
12.4418 11.2743 0
8.76514 20.5369 0
-8.85855 20.3283 0
-12.2274 12.1388 0
-12.4247 10.5686 0
-12.3923 7.7137 0
-11.7449 5.60478 0
-10.9719 4.32934 0
-10.3447 3.4067 0
-9.3402 1.77057 0
-7.38379 -0.523057 0
-5.23769 -2.03431 0
-3.06624 -3.09548 0
-0.0127313 -3.96253 0
11.838 13.5354 0
8.95627 12.6871 0
-11.4494 15.7424 0
-9.2622 15.3467 0
-0.432263 4.10903 0
1.07251 4.2318 0
-2.00675 6.00199 0
-1.41454 4.35802 0
4.86383 5.79082 0
5.20694 6.77135 0
0.273495 10.811 0
0.115943 9.90787 0
-1.35082 8.0467 0
-2.744 7.79691 0
6.28915 6.82837 0
5.42597 8.64318 0
4.47225 9.00443 0
4.31848 10.1779 0
2.41079 11.2314 0
2.40909 11.2295 0
-2.90923 11.1269 0
-4.51873 10.0796 0
-4.12421 9.17479 0
-4.97107 8.32602 0
1.30985 1.72441 0
-0.204417 0.681846 0
6.64158 3.04127 0
5.57668 1.33744 0
5.31056 3.81484 0
3.27856 4.45632 0
-8.8337 13.1477 0
-6.23926 11.954 0
3.24184 4.43727 0
1.69324 5.05342 0
-9.61153 8.78792 0
-8.24098 7.91593 0
-0.984833 -1.10854 0
-1.43303 -3.69174 0
1.16718 21.654 0
1.30508 23.6371 0
1.11278 -1.66737 0
1.23179 -0.302579 0
2.65865 8.73015 0
1.47285 7.52731 0
8.83886 11.88 0
5.94694 11.1202 0
4.09224 20.3463 0
0.291007 12.4431 0
-2.96768 -0.19511 0
-3.70433 -2.81635 0
-4.78962 2.80816 0
-5.63242 1.79679 0
-5.95424 -1.5942 0
-4.86432 0.701366 0
0.418738 8.00843 0
-0.675018 7.48606 0
9.61098 7.37145 0
8.02975 6.44994 0
5.71519 0.212027 0
7.36457 -1.68295 0
1.60678 -4.05243 0
1.65255 -2.10062 0
-6.62178 1.96401 0
-8.18352 0.255941 0
-5.97 5.51089 0
-7.247 4.5144 0
7.78727 3.07326 0
10.1755 1.55229 0
-12.4712 9.16107 0
-9.70563 9.01819 0
12.721 9.6652 0
10.8055 9.3475 0
-3.14627 3.92197 0
-4.01239 2.75041 0
-9.84935 2.63389 0
-7.26518 4.00967 0
-4.01193 6.99873 0
-4.82758 5.321 0
-7.30297 7.92097 0
-6.91307 6.85589 0
8.52748 8.64985 0
8.73721 9.38797 0
-0.926353 12.2842 0
-0.812018 11.5067 0
11.7671 14.0338 0
9.54412 14.2967 0
8.27081 17.1539 0
2.23657 11.496 0
8.05259 10.3483 0
9.28908 11.5649 0
-7.84713 9.56499 0
-8.08283 10.6155 0
-2.50466 14.7201 0
0.794323 13.6573 0
-8.8322 15.9618 0
-4.27549 13.0473 0
9.28936 11.571 0
12.0695 12.6514 0
-8.57621 17.8936 0
-9.95028 19.16 0
-11.9367 13.5137 0
-9.21077 12.778 0
7.3311 21.5737 0
6.4641 20.0277 0
8.59154 12.9817 0
6.57359 12.5715 0
-9.19072 12.6783 0
-7.5966 11.401 0
2.24827 14.5692 0
4.23272 13.486 0
-4.93763 11.9544 0
-4.14787 10.7734 0
4.8956 13.4694 0
4.41324 11.7067 0
11.3732 16.0795 0
9.50277 15.3761 0
-2.84054 14.5537 0
-4.33848 14.8894 0
-1.64123 20.911 0
-0.20694 15.0197 0
-6.7547 12.8853 0
-4.68359 13.7125 0
-11.7144 14.5114 0
-9.13902 14.0273 0
4.13257 18.1222 0
6.77164 16.8234 0
-1.12683 14.0287 0
-0.710356 12.5018 0
-5.45106 20.7211 0
-6.4532 22.2256 0
0.429038 21.2954 0
1.84268 15.6784 0
-2.55012 17.589 0
-4.23428 20.7995 0
-9.20901 16.7343 0
-11.0275 17.2312 0
-5.46455 16.8567 0
-5.12028 15.4405 0
-6.35181 13.5909 0
-6.64937 14.8906 0
10.1649 18.8301 0
8.48095 18.0078 0
-2.93316 21.4251 0
-2.94661 23.5299 0
6.08172 13.4673 0
4.89718 13.4675 0
7.11074 19.0234 0
6.25596 17.6455 0
3.71771 14.5467 0
4.97658 17.7895 0
-2.10271 16.1111 0
-0.805431 16.1611 0
4.72457 22.8928 0
3.74529 21.0677 0
0.109155 14.9767 0
0.999672 15.9389 0
2.06281 21.0788 0
3.01702 17.2811 0
10.8466 17.4501 0
8.86534 16.6331 0
-6.97863 16.8533 0
-7.43762 15.9557 0
-8.84602 14.407 0
-6.87134 14.3778 0
-5.83111 19.7123 0
-4.51734 17.3972 0
-0.291743 21.761 0
-0.275092 23.6959 0
1.75624 13.7103 0
2.74073 12.5118 0
-3.63488 16.774 0
-3.72287 15.1526 0
-7.76471 21.2861 0
-6.38018 19.6016 0
0.32417 17.6561 0
-0.360332 17.4106 0
7.21371 15.1298 0
6.44227 15.7284 0
8.67095 13.766 0
7.21195 14.575 0
-4.03504 21.1955 0
-4.95608 23.0135 0
-2.54768 17.5896 0
-1.45912 18.3316 0
0.884088 17.2639 0
2.03898 17.8618 0
5.65529 15.4843 0
4.94575 16.1061 0
-4.39973 18.5346 0
-3.53424 19.1881 0
-6.62888 18.9131 0
-5.28453 17.2139 0
3.03975 16.6034 0
4.16897 15.8164 0
-2.07714 20.6862 0
-2.82172 19.039 0
2.77791 23.4616 0
2.61296 21.4091 0
-1.72681 23.6357 0
-1.64367 20.9116 0
5.37364 19.8784 0
5.16197 17.9286 0
5.95326 22.3243 0
4.99868 20.3728 0
2.27996 19.3659 0
3.60568 19.5379 0
0.605836 19.2646 0
1.90993 19.7046 0
0.161405 19.6776 0
-1.14892 19.4415 0

CELLS 495 1485
2 160 0
2 1 2
2 2 3
2 161 4
2 4 5
2 5 0
2 2 6
2 6 7
2 7 8
2 8 9
2 3 9
2 9 144
2 10 11
2 11 12
2 145 4
2 12 13
2 13 14
2 15 14
2 5 156
2 7 16
2 17 178
2 147 17
2 19 18
2 19 8
2 20 19
2 21 20
2 10 21
2 153 125
2 23 22
2 24 23
2 24 124
2 127 24
2 26 25
2 26 13
2 27 26
2 28 27
2 29 28
2 14 168
2 30 17
2 30 31
2 32 31
2 32 146
2 18 33
2 33 148
2 128 35
2 20 152
2 35 36
2 37 36
2 22 37
2 37 163
2 38 131
2 175 40
2 40 23
2 126 40
2 42 41
2 25 192
2 43 42
2 43 44
2 193 27
2 45 44
2 46 45
2 47 171
2 173 47
2 48 186
2 48 49
2 49 50
2 34 50
2 50 51
2 52 129
2 36 52
2 52 53
2 53 162
2 54 38
2 55 54
2 139 55
2 57 56
2 39 57
2 58 57
2 59 133
2 41 59
2 59 196
2 61 60
2 197 43
2 199 61
2 62 63
2 195 185
2 49 64
2 64 65
2 177 65
2 51 134
2 67 66
2 68 67
2 53 136
2 69 68
2 70 69
2 55 137
2 165 70
2 233 71
2 73 72
2 140 56
2 215 73
2 74 75
2 58 142
2 76 75
2 77 76
2 60 143
2 77 198
2 78 79
2 79 62
2 65 80
2 80 81
2 81 176
2 67 200
2 82 83
2 83 191
2 69 208
2 84 85
2 164 216
2 71 225
2 86 279
2 158 250
2 88 89
2 290 252
2 254 214
2 90 91
2 91 211
2 91 92
2 92 93
2 93 210
2 189 93
2 94 95
2 95 78
2 96 1
2 96 97
2 97 6
2 97 98
2 16 98
2 179 99
2 99 30
2 31 100
2 187 101
2 101 48
2 101 102
2 102 64
2 102 103
2 103 80
2 81 104
2 104 105
2 83 105
2 105 190
2 85 106
2 217 120
2 107 87
2 108 88
2 255 122
2 109 90
2 109 110
2 92 110
2 110 188
2 111 94
2 95 112
2 112 113
2 113 79
2 113 114
2 63 114
2 114 194
2 115 46
2 116 47
2 116 172
2 117 29
2 169 118
2 118 15
2 157 119
2 0 119
2 119 180
2 99 100
2 103 104
2 249 292
2 111 112
2 183 116
2 120 204
2 121 224
2 120 121
2 122 242
2 123 282
2 122 123
2 124 11
2 125 21
2 124 125
2 41 126
2 127 25
2 126 127
2 34 128
2 129 51
2 128 129
2 203 130
2 131 39
2 130 131
2 39 132
2 133 58
2 132 133
2 134 66
2 135 68
2 134 135
2 136 135
2 137 70
2 136 137
2 207 138
2 130 139
2 139 138
2 140 73
2 75 141
2 231 140
2 142 141
2 143 77
2 142 143
2 144 10
2 145 12
2 144 145
2 146 33
2 147 18
2 146 147
2 148 34
2 149 35
2 148 149
2 221 150
2 151 74
2 150 240
2 152 149
2 153 22
2 152 153
2 94 154
2 155 78
2 154 155
2 156 15
2 157 118
2 156 157
2 87 266
2 107 222
2 159 158
2 181 160
2 161 3
2 160 161
2 162 54
2 163 174
2 162 163
2 164 121
2 71 165
2 165 164
2 166 273
2 247 167
2 325 166
2 168 29
2 169 117
2 168 169
2 44 170
2 171 182
2 170 171
2 172 117
2 173 28
2 172 173
2 174 38
2 175 132
2 174 175
2 176 82
2 177 66
2 176 177
2 178 16
2 179 98
2 178 179
2 180 96
2 181 1
2 180 181
2 182 46
2 183 115
2 182 183
2 61 184
2 185 63
2 184 185
2 186 32
2 187 100
2 186 187
2 188 111
2 189 154
2 188 189
2 190 106
2 191 84
2 190 191
2 192 42
2 193 170
2 192 193
2 194 115
2 195 45
2 194 195
2 196 60
2 197 184
2 196 197
2 198 155
2 199 62
2 198 199
2 200 82
2 201 84
2 200 201
2 72 202
2 203 56
2 202 203
2 204 234
2 205 235
2 205 204
2 261 206
2 167 207
2 206 245
2 208 201
2 209 85
2 208 209
2 210 76
2 227 74
2 210 211
2 236 72
2 213 167
2 239 274
2 214 123
2 230 215
2 241 237
2 216 209
2 217 106
2 216 217
2 89 218
2 219 108
2 218 219
2 220 109
2 221 226
2 220 221
2 222 322
2 320 223
2 223 222
2 224 298
2 264 225
2 225 224
2 226 90
2 227 211
2 226 227
2 228 288
2 289 229
2 228 268
2 151 230
2 231 141
2 230 231
2 229 232
2 233 138
2 265 233
2 234 278
2 235 86
2 235 234
2 236 212
2 257 237
2 291 236
2 248 284
2 246 239
2 271 295
2 240 151
2 241 215
2 240 258
2 242 220
2 243 150
2 242 243
2 277 244
2 232 306
2 245 267
2 212 246
2 247 202
2 246 247
2 253 248
2 301 249
2 249 248
2 286 238
2 251 228
2 294 304
2 252 302
2 300 253
2 253 309
2 218 254
2 255 219
2 254 255
2 280 256
2 259 281
2 256 257
2 258 241
2 259 257
2 283 259
2 260 107
2 261 87
2 260 261
2 319 238
2 287 318
2 263 262
2 299 264
2 232 265
2 265 264
2 266 223
2 244 269
2 267 266
2 268 229
2 321 267
2 313 307
2 212 270
2 271 239
2 270 271
2 272 316
2 273 317
2 272 273
2 274 213
2 275 251
2 274 275
2 276 158
2 277 312
2 327 276
2 278 260
2 279 206
2 278 279
2 89 280
2 281 214
2 280 281
2 282 243
2 283 258
2 282 283
2 284 293
2 311 285
2 308 284
2 250 286
2 287 159
2 286 287
2 288 213
2 289 207
2 288 289
2 285 290
2 291 237
2 290 291
2 292 108
2 293 310
2 292 293
2 326 328
2 329 303
2 295 294
2 86 296
2 297 245
2 296 297
2 298 205
2 299 296
2 298 299
2 262 300
2 301 263
2 300 301
2 302 270
2 303 295
2 302 303
2 304 275
2 305 277
2 304 305
2 306 297
2 307 269
2 306 307
2 285 308
2 315 252
2 308 309
2 310 88
2 311 256
2 310 311
2 312 251
2 313 268
2 312 313
2 262 314
2 315 309
2 314 315
2 316 159
2 317 276
2 316 317
2 318 263
2 319 314
2 318 319
2 323 320
2 321 269
2 320 321
2 322 272
2 323 166
2 322 323
2 305 324
2 325 244
2 324 325
2 294 326
2 327 324
2 326 327
2 328 250
2 329 238
2 328 329

CELL_TYPES 495
3
3
3
3
3
3
3
3
3
3
3
3
3
3
3
3
3
3
3
3
3
3
3
3
3
3
3
3
3
3
3
3
3
3
3
3
3
3
3
3
3
3
3
3
3
3
3
3
3
3
3
3
3
3
3
3
3
3
3
3
3
3
3
3
3
3
3
3
3
3
3
3
3
3
3
3
3
3
3
3
3
3
3
3
3
3
3
3
3
3
3
3
3
3
3
3
3
3
3
3
3
3
3
3
3
3
3
3
3
3
3
3
3
3
3
3
3
3
3
3
3
3
3
3
3
3
3
3
3
3
3
3
3
3
3
3
3
3
3
3
3
3
3
3
3
3
3
3
3
3
3
3
3
3
3
3
3
3
3
3
3
3
3
3
3
3
3
3
3
3
3
3
3
3
3
3
3
3
3
3
3
3
3
3
3
3
3
3
3
3
3
3
3
3
3
3
3
3
3
3
3
3
3
3
3
3
3
3
3
3
3
3
3
3
3
3
3
3
3
3
3
3
3
3
3
3
3
3
3
3
3
3
3
3
3
3
3
3
3
3
3
3
3
3
3
3
3
3
3
3
3
3
3
3
3
3
3
3
3
3
3
3
3
3
3
3
3
3
3
3
3
3
3
3
3
3
3
3
3
3
3
3
3
3
3
3
3
3
3
3
3
3
3
3
3
3
3
3
3
3
3
3
3
3
3
3
3
3
3
3
3
3
3
3
3
3
3
3
3
3
3
3
3
3
3
3
3
3
3
3
3
3
3
3
3
3
3
3
3
3
3
3
3
3
3
3
3
3
3
3
3
3
3
3
3
3
3
3
3
3
3
3
3
3
3
3
3
3
3
3
3
3
3
3
3
3
3
3
3
3
3
3
3
3
3
3
3
3
3
3
3
3
3
3
3
3
3
3
3
3
3
3
3
3
3
3
3
3
3
3
3
3
3
3
3
3
3
3
3
3
3
3
3
3
3
3
3
3
3
3
3
3
3
3
3
3
3
3
3
3
3
3
3
3
3
3
3
3
3
3
3
3
3
3
3
3
3
3
3
3
3
3
3
3
3
3
3
3
3
3
3
3
3
3
3
3
3
3
3
3
3
3
3
3
3
3
3
3
3
3
3
3
3
3
3

CELL_DATA 495
SCALARS current_Length float
LOOKUP_TABLE default
0.942002
0.981333
1.43183
1.52492
1.59106
1.49176
0.611411
1.03847
1.66257
1.19352
0.954741
1.266
1.86213
1.46343
0.360178
0.266888
1.57643
0.985699
0.0784874
0.610449
0.563732
0.6761
0.3762
0.677185
1.19171
1.20223
0.823102
1.02974
1.13909
1.88122
0.31403
0.789198
1.71384
0.565265
1.41162
0.995414
0.758386
0.861757
1.10465
1.07877
1.29906
0.827688
2.06723
0.00249888
1.43447
1.53493
1.27813
1.07715
0.776775
0.804163
0.65895
0.607604
1.15679
1.53761
1.58306
1.16225
1.13752
1.31751
1.22603
1.48183
0.962674
0.63184
0.812586
0.631078
0.940782
0.706367
1.242
2.09926
1.63012
1.57102
0.708793
1.15316
1.65063
1.02496
0.796283
0.602478
1.22285
1.57049
0.762384
1.14387
0.930087
1.69321
0.409482
0.690754
0.657011
0.505051
1.07946
0.0901118
1.42615
0.00249684
1.41735
1.50589
0.914736
0.874912
1.00376
1.55048
0.289295
1.49046
0.266093
0.869792
1.32932
1.37547
0.789201
1.23772
0.455551
0.638541
1.11866
0.55812
0.810298
1.50629
1.16862
1.03257
1.01281
1.11504
1.19672
1.53365
0.943257
0.546278
1.4894
0.764869
0.82062
0.838012
1.35682
0.859459
0.864904
1.8957
0.69491
1.51137
1.93502
0.00250816
1.24812
0.976427
1.99937
1.38085
2.4476
1.01177
2.58288
1.20847
2.12446
2.15387
1.63967
2.99092
0.363435
2.99267
1.3881
1.94396
2.05477
0.938466
2.04336
2.14125
2.01951
0.913745
1.87239
2.08724
1.54744
2.03716
1.58255
2.05456
1.40833
1.90941
1.92393
1.49137
2.47854
1.11562
2.68774
0.917959
2.42643
2.51687
1.78632
2.69784
0.696473
2.67238
1.44589
1.95733
1.622
2.0002
2.16333
1.6133
2.20607
1.11643
0.503494
0.468866
3.00399
1.25916
1.02775
2.22268
1.30337
1.53815
1.50978
0.559764
0.922239
1.74738
1.66456
1.08408
1.03883
1.28927
1.33219
0.916814
1.38821
1.37404
1.4154
0.993158
1.1356
2.00964
1.01984
1.66487
1.18349
0.316854
2.17621
0.00250713
1.64772
1.43326
1.28807
0.987074
1.69058
1.19899
0.516096
1.46808
1.83846
1.537
1.6565
2.00924
0.837674
1.08483
2.13085
0.528078
0.633443
2.09549
0.0413638
1.17535
1.66667
1.31192
1.7838
1.62443
0.746341
1.73865
2.6218
0.530072
1.76954
1.98798
0.69214
1.09555
1.36997
1.04218
1.15872
1.68907
0.815595
0.188496
2.99005
0.800509
1.00309
0.943499
0.705733
1.72127
2.72278
1.15725
1.00339
1.3165
0.840924
0.990068
2.54117
1.47564
0.878083
1.21209
0.321858
0.906617
1.83016
0.817785
1.76544
2.51225
2.1322
1.20902
1.95235
0.882498
1.90578
2.31442
1.19079
0.997766
1.61979
0.386688
1.11034
2.83147
1.44952
0.248754
2.76922
1.63312
0.661758
1.94167
0.994737
0.779378
1.45695
1.00228
0.604511
2.92758
1.12542
1.1581
1.86549
0.938022
1.82956
1.1342
1.47892
1.62966
0.767337
1.95418
1.60251
0.785937
2.08322
1.08024
2.23843
0.879452
2.16382
1.53515
1.17938
1.47834
1.73466
1.16477
1.03252
1.07663
1.61549
1.31442
0.319004
0.750567
1.27783
1.22641
0.00611939
1.42657
2.98267
0.806272
1.59898
1.86861
1.40522
0.101651
2.82346
1.56902
1.10064
1.77244
0.788259
1.02198
2.05923
1.39946
0.923837
2.04272
0.989864
1.78186
1.46962
1.30163
0.786753
1.42073
0.663089
2.0581
1.82602
1.46837
0.887015
1.99834
0.374832
0.956529
1.06639
1.07798
1.35214
1.3264
1.0644
0.780397
0.812524
1.02225
0.931067
2.62052
1.39707
2.15337
0.970416
1.54159
0.306601
1.58265
1.21931
1.69179
1.80772
1.59486
1.18104
0.683586
0.00250403
0.443317
1.7569
1.32077
2.2092
1.88518
1.51408
1.32503
1.45744
1.67264
1.62496
0.55873
2.20735
1.33096
1.87397
0.0025092
1.45297
2.10487
1.58248
0.00251181
1.18454
1.19453
0.907204
1.62149
1.17915
1.13003
0.829011
1.44786
1.28882
1.29824
2.02806
1.18267
2.07122
1.48671
0.882329
1.311
1.0644
0.6781
1.38265
1.53919
0.790322
2.14309
1.3929
1.39459
1.00822
0.479604
0.942948
1.9749
0.56011
0.788787
1.85357
0.858069
1.58126
1.93501
0.963374
1.13404
1.55094
1.0803
0.669534
1.62378
1.45392
0.73211
2.18041
0.6067
1.15244
0.727177
1.72425
1.14347
0.976439
1.0218
0.55486
1.66828
1.12554
2.07478
2.03796
1.54406
1.43369
1.31737
1.33011
1.13741
1.30046
0.823955
1.68373
0.943397
1.14353
1.47513
1.08447
0.848568
0.399963
2.1667
1.51283
1.34751
1.37639
1.13082
0.727953
1.80771
1.48326
0.641665
2.0591
1.22438
0.488557
2.72542
0.620474
0.231744
1.9613
1.35384
0.906833
2.17244
1.52333
1.51058
1.33683
1.63303
0.501653
1.37632
1.63975
1.54976
1.33143

SCALARS edge_force float
LOOKUP_TABLE default
0.5
0.5
0.5
0.5
0.5
0.5
0.5
0.5
0.5
0.5
0.5
0.5
0.5
0.5
0.5
0.5
0.5
0.5
0.5
0.5
0.5
0.5
0.5
0.5
0.5
0.5
0.5
0.5
0.5
0.5
0.5
0.5
0.5
0.5
0.5
0.5
0.5
0.5
0.5
0.5
0.5
0.5
0.5
0.5
0.5
0.5
0.5
0.5
0.5
0.5
0.5
0.5
0.5
0.5
0.5
0.5
0.5
0.5
0.5
0.5
0.5
0.5
0.5
0.5
0.5
0.5
0.5
0.5
0.5
0.5
0.5
0.5
0.5
0.5
0.5
0.5
0.5
0.5
0.5
0.5
0.5
0.5
0.5
0.5
0.5
0.5
0.5
0.5
0.5
0.5
0.5
0.5
0.5
0.5
0.5
0.5
0.5
0.5
0.5
0.5
0.5
0.5
0.5
0.5
0.5
0.5
0.5
0.5
0.5
0.5
0.5
0.5
0.5
0.5
0.5
0.5
0.5
0.5
0.5
0.5
0.5
0.5
0.5
0.5
0.5
0.5
0.5
0.5
0.5
0.5
0.5
0.5
0.5
2
0.5
2
0.5
2
0.5
0.5
2
0.5
2
0.5
2
0.5
0.5
2
0.5
2
0.5
2
0.5
0.5
2
0.5
2
0.5
2
0.5
0.5
2
0.5
2
0.5
2
0.5
0.5
2
0.5
2
0.5
2
0.5
2
2
2
2
2
2
2
0.5
0.5
2
0.5
0.5
0.5
0.5
0.5
0.5
0.5
0.5
0.5
0.5
0.5
0.5
0.5
0.5
0.5
0.5
0.5
0.5
0.5
0.5
0.5
0.5
0.5
0.5
0.5
0.5
0.5
0.5
0.5
0.5
0.5
0.5
0.5
0.5
0.5
0.5
0.5
0.5
0.5
0.5
0.5
0.5
0.5
0.5
0.5
0.5
0.5
0.5
0.5
0.5
0.5
2
0.5
0.5
2
0.5
0.5
0.5
0.5
0.5
0.5
0.5
0.5
0.5
0.5
0.5
0.5
0.5
0.5
2
0.5
0.5
0.5
0.5
2
0.5
0.5
0.5
0.5
0.5
0.5
0.5
0.5
0.5
2
0.5
2
0.5
0.5
0.5
2
0.5
0.5
0.5
0.5
0.5
2
0.5
2
0.5
0.5
2
0.5
0.5
0.5
0.5
0.5
2
0.5
0.5
0.5
0.5
0.5
0.5
0.5
0.5
0.5
0.5
0.5
0.5
0.5
0.5
2
0.5
0.5
0.5
0.5
0.5
0.5
0.5
0.5
0.5
0.5
0.5
0.5
0.5
0.5
0.5
0.5
0.5
0.5
2
0.5
0.5
2
0.5
2
0.5
0.5
2
0.5
0.5
0.5
0.5
0.5
0.5
0.5
0.5
0.5
0.5
0.5
0.5
0.5
0.5
0.5
0.5
0.5
2
0.5
0.5
0.5
0.5
0.5
0.5
0.5
0.5
0.5
0.5
0.5
2
0.5
0.5
0.5
0.5
0.5
0.5
0.5
0.5
0.5
2
0.5
0.5
0.5
0.5
0.5
0.5
0.5
0.5
2
0.5
0.5
0.5
0.5
0.5
0.5
0.5
2
0.5
0.5
0.5
2
0.5
0.5
0.5
0.5
0.5
0.5
0.5
0.5
0.5
0.5
0.5
0.5
0.5
2
0.5
0.5
0.5
0.5
0.5
0.5
0.5
0.5
2
0.5
0.5
0.5
0.5
0.5
0.5
0.5
0.5
0.5
0.5
0.5
0.5
2
0.5
0.5
0.5
0.5
0.5
0.5
0.5
2
0.5
0.5
0.5
0.5
0.5
0.5
0.5
0.5
0.5
0.5
0.5
0.5
2
0.5
0.5
0.5
0.5
0.5
0.5
0.5
0.5
0.5
0.5
0.5
0.5
0.5
0.5
0.5
0.5
0.5
0.5
0.5
0.5
0.5
0.5
2
0.5
0.5
2
0.5
0.5
0.5
0.5
0.5
2
0.5
0.5
0.5
0.5
0.5
0.5
0.5
0.5
0.5
0.5
0.5
