# vtk DataFile Version 2.0
2D-vertex
ASCII
DATASET UNSTRUCTURED_GRID
POINTS 298 float
0.280182 -1.99768 0
2.89781 -1.73387 0
3.26077 -0.830664 0
2.27202 0.184539 0
-0.150794 0.33553 0
-0.887312 -1.0628 0
3.88608 -0.781032 0
4.44745 0.102389 0
3.55861 1.47758 0
2.40623 1.12205 0
1.22107 2.23946 0
-0.558551 2.79621 0
-1.36035 1.56185 0
-1.64594 1.49975 0
-2.1487 0.0350719 0
-1.67654 -0.811383 0
5.03615 -0.030911 0
5.92752 0.933412 0
4.11977 2.24058 0
3.75762 2.14327 0
2.96164 2.98816 0
1.75982 2.88651 0
1.19866 6.14948 0
0.0736721 6.08254 0
-0.633944 4.29992 0
-2.04951 3.58171 0
-2.04173 1.90185 0
-3.45446 1.63932 0
-3.92255 0.795459 0
-3.64397 0.0979031 0
7.03252 0.996546 0
7.69967 1.87813 0
7.40692 3.13849 0
5.27369 3.9805 0
5.8139 4.66713 0
3.39883 5.64048 0
2.68214 6.705 0
1.68326 6.82258 0
0.657921 9.63397 0
-1.03541 9.36717 0
-0.72896 6.81697 0
-2.59204 6.0076 0
-3.55645 4.7558 0
-4.72611 4.88013 0
-5.40546 3.80669 0
-6.89283 3.62463 0
-7.1905 2.75381 0
-5.59415 1.17502 0
7.91355 3.99062 0
7.56938 4.85753 0
6.9495 5.11769 0
6.10483 7.11099 0
3.76671 7.85573 0
3.61043 8.66217 0
2.19716 9.88162 0
2.84794 10.9145 0
-1.96535 10.4794 0
-1.95663 9.93241 0
-3.25994 8.82345 0
-3.08926 6.97989 0
-4.92375 7.59065 0
-6.30455 6.6239 0
-8.33037 5.69472 0
-8.25804 5.0174 0
8.46825 5.4043 0
8.4902 5.53218 0
7.01781 7.28737 0
7.24304 8.73867 0
5.9943 9.61647 0
6.1388 10.6062 0
5.40781 11.3197 0
5.48383 11.9493 0
-2.14799 12.6812 0
-2.62946 12.2919 0
-6.43102 11.4138 0
-5.9189 10.0717 0
-6.7293 9.2368 0
-6.61406 8.75363 0
-9.21263 6.58617 0
-9.08672 5.98549 0
9.88671 5.99737 0
10.1138 7.16422 0
9.32036 8.14468 0
10.2548 8.65325 0
9.7631 10.2904 0
9.88984 11.1978 0
6.96773 15.5692 0
5.38067 18.4018 0
-4.74056 18.946 0
-5.56547 18.2444 0
-9.93233 12.2685 0
-9.73436 11.3045 0
-10.2156 10.8001 0
-9.62314 9.33181 0
-10.4294 8.14563 0
-10.1193 6.87093 0
3.79432 -3.49904 0
5.0562 -2.89378 0
5.97332 -2.41071 0
8.37414 -0.613337 0
9.62039 0.972348 0
10.815 3.4765 0
10.9824 3.8591 0
11.5996 5.10794 0
12.1428 7.21264 0
12.2465 8.16579 0
11.7539 11.8946 0
6.15568 20.1938 0
-5.14886 20.631 0
-11.6554 12.8575 0
-12.0726 11.172 0
-12.2856 8.17514 0
-11.7686 5.99214 0
-11.0443 4.6314 0
-10.4215 3.62274 0
-9.39616 1.86226 0
-7.42671 -0.489899 0
-5.24078 -2.02858 0
-3.02539 -3.08822 0
0.0620862 -3.91608 0
10.8927 14.0771 0
8.30488 13.2413 0
-9.89327 16.9075 0
-8.30087 16.0679 0
-0.458212 4.08116 0
1.05414 4.22838 0
-2.02985 5.90262 0
-1.44257 4.29232 0
4.77588 5.95162 0
5.08555 6.99117 0
0.449575 11.0442 0
0.302867 9.93183 0
-1.25643 7.932 0
-2.71755 7.67606 0
6.10433 7.11344 0
5.12456 8.99447 0
4.2951 9.27738 0
4.06135 10.6535 0
2.56064 11.7956 0
2.45328 11.5643 0
-2.57571 10.8585 0
-4.42358 9.85447 0
-4.09648 8.99716 0
-4.9683 8.18875 0
1.31314 1.75114 0
-0.199186 0.670321 0
6.60651 3.26127 0
5.59141 1.50396 0
5.27144 3.98159 0
3.25684 4.55428 0
-8.44848 13.5375 0
-6.11596 11.825 0
3.20143 4.52314 0
1.67381 5.08455 0
-9.52373 9.02626 0
-8.199 8.03563 0
-0.968376 -1.10112 0
-1.37798 -3.66408 0
0.880333 19.4153 0
0.758575 21.3888 0
1.16116 -1.62257 0
1.25424 -0.273959 0
2.64829 8.90161 0
1.42924 7.62409 0
8.1109 12.3713 0
5.58663 11.7919 0
3.51409 19.0092 0
0.662105 12.7414 0
-2.98254 -0.216835 0
-3.69392 -2.80414 0
-4.86985 2.76992 0
-5.69853 1.79445 0
-5.98868 -1.57199 0
-4.90985 0.681984 0
0.496677 8.02479 0
-0.657306 7.44398 0
9.297 7.80457 0
7.80168 6.81932 0
5.75719 0.393137 0
7.44952 -1.42824 0
1.70316 -3.97681 0
1.70774 -2.04333 0
-6.69831 1.97398 0
-8.2465 0.319217 0
-6.07353 5.47045 0
-7.35203 4.53722 0
7.73886 3.35466 0
10.164 1.96855 0
-12.2571 9.66549 0
-9.62517 9.33033 0
12.1835 10.3099 0
10.3139 9.85014 0
-3.20144 3.85351 0
-4.06193 2.70221 0
-9.91122 2.7724 0
-7.38105 4.05227 0
-4.05914 6.87569 0
-4.89521 5.24247 0
-7.32481 7.98127 0
-6.98 6.84866 0
8.09819 9.06584 0
8.26564 9.81358 0
-0.480604 12.1419 0
-0.365374 11.5131 0
10.4715 15.1789 0
8.30561 14.5544 0
6.39451 16.4601 0
2.35961 12.085 0
7.47008 10.8381 0
8.6135 12.0148 0
-7.83448 9.69093 0
-7.96991 10.819 0
-1.62853 14.3685 0
1.09443 14.3474 0
-7.50248 16.6404 0
-4.03631 12.6409 0
8.61326 12.0173 0
11.2338 13.229 0
-6.26755 18.4706 0
-6.92771 19.9605 0
-11.116 14.3048 0
-8.82253 13.2758 0
4.56467 20.8739 0
4.05978 19.1559 0
7.9259 13.665 0
6.38637 13.5173 0
-8.81221 13.013 0
-7.41512 11.5191 0
2.16075 15.5999 0
3.99033 14.2417 0
-4.71373 11.6846 0
-4.03018 10.4877 0
4.63448 14.2277 0
4.25117 12.306 0
9.50375 16.9006 0
7.83899 15.4127 0
-2.2881 13.8648 0
-3.97361 14.1416 0
-0.872458 18.5806 0
0.0968567 15.6649 0
-6.54236 12.9486 0
-4.36539 13.3025 0
-10.6014 15.492 0
-8.58835 14.6101 0
3.00092 17.5795 0
5.25673 15.9439 0
-0.749541 14.1567 0
-0.0581238 12.6699 0
-3.21776 19.0307 0
-3.49167 20.9878 0
0.0057879 18.7107 0
1.42487 16.7914 0
-2.33071 16.6956 0
-2.38128 18.639 0
-7.56053 17.4584 0
-8.84335 18.4483 0
-4.35244 16.5018 0
-4.68399 14.9853 0
-6.11843 13.45 0
-6.10207 14.9677 0
7.86683 18.8857 0
6.38164 17.6469 0
-1.79683 19.0344 0
-1.99472 21.1801 0
5.97001 14.218 0
4.68268 14.1558 0
4.93587 18.2776 0
4.48083 16.7323 0
3.27096 15.6635 0
3.7141 16.6024 0
-1.78815 16.3661 0
-0.927401 16.7755 0
2.64305 21.3118 0
2.48368 19.8594 0
0.0992375 15.6641 0
0.664479 16.8111 0
1.41303 19.1936 0
1.91235 17.5681 0
8.76713 17.8429 0
6.81073 16.2661 0
-5.39984 17.0872 0
-6.47977 16.2335 0
-8.15426 14.956 0
-6.49945 14.4885 0
-3.8365 18.5811 0
-3.76386 16.8104 0
-0.436584 18.8882 0
-0.668031 21.3006 0
1.70635 14.4702 0
2.85625 13.3841 0
-2.99646 16.3347 0
-3.15423 14.3906 0
-4.32026 20.8094 0
-3.88128 18.5992 0
0.414017 17.5334 0
-0.91992 17.0213 0
6.87387 15.4421 0
4.95704 15.1173 0
CELLS 150 992
5 0 160 161 4 5
6 3 2 6 7 8 9
6 3 9 144 145 4 161
8 156 5 4 145 12 13 14 15
8 7 16 178 17 147 18 19 8
7 8 19 20 21 10 144 9
6 153 22 23 24 124 125
8 25 26 13 12 11 124 24 127
7 26 27 28 29 168 14 13
6 17 30 31 32 146 147
7 18 33 148 149 152 20 19
5 20 152 153 125 21
7 22 37 163 174 175 40 23
5 24 23 40 126 127
5 26 25 192 193 27
7 28 27 193 170 171 47 173
9 48 49 50 34 148 33 146 32 186
5 35 128 129 52 36
6 36 52 53 162 163 37
6 38 54 55 139 130 131
7 40 175 132 133 59 41 126
6 42 41 59 196 197 43
7 44 43 197 184 185 195 45
8 49 64 65 177 66 134 51 50
7 51 134 135 136 53 52 129
6 53 136 137 55 54 162
8 55 137 70 165 71 233 138 139
7 57 56 140 231 141 142 58
7 59 133 58 142 143 60 196
6 61 60 143 77 198 199
5 65 80 81 176 177
6 67 200 201 208 69 68
7 69 208 209 216 164 165 70
5 71 225 264 265 233
7 73 72 236 291 237 241 215
5 92 93 210 211 91
8 77 76 210 93 189 154 155 198
5 2 1 96 97 6
5 7 6 97 98 16
5 17 178 179 99 30
4 48 186 187 101
5 49 48 101 102 64
5 65 64 102 103 80
6 82 176 81 104 105 83
4 190 191 83 105
5 121 164 216 217 120
5 214 254 255 122 123
5 91 90 109 110 92
5 110 188 189 93 92
5 78 95 112 113 79
5 62 79 113 114 63
5 195 185 63 114 194
4 47 116 172 173
5 14 168 169 118 15
5 5 156 157 119 0
5 160 0 119 180 181
4 99 100 31 30
4 103 104 81 80
5 293 284 248 249 292
4 111 112 95 94
5 182 183 116 47 171
5 120 204 205 224 121
5 122 242 243 282 123
5 124 11 10 21 125
6 126 41 42 192 25 127
5 128 34 50 51 129
6 130 203 56 57 39 131
5 132 39 57 58 133
5 134 66 67 68 135
6 136 135 68 69 70 137
8 138 207 167 247 202 203 130 139
5 140 73 215 230 231
6 142 141 75 76 77 143
5 144 10 11 12 145
4 146 33 18 147
5 148 34 128 35 149
7 150 221 226 227 74 151 240
7 152 149 35 36 37 22 153
5 154 94 95 78 155
4 156 15 118 157
5 266 87 107 222 223
6 160 181 1 2 3 161
5 162 54 38 174 163
6 164 121 224 225 71 165
5 166 273 276 277 244
4 168 29 117 169
6 170 44 45 46 182 171
5 172 117 29 28 173
6 174 38 131 39 132 175
6 176 82 200 67 66 177
4 178 16 98 179
4 180 96 1 181
4 182 46 115 183
6 184 61 199 62 63 185
5 186 32 31 100 187
5 188 111 94 154 189
5 190 106 85 84 191
6 192 42 43 44 170 193
5 194 115 46 45 195
5 196 60 61 184 197
6 198 155 78 79 62 199
6 200 82 83 191 84 201
6 202 72 73 140 56 203
4 204 234 235 205
6 206 261 87 266 267 245
5 208 201 84 85 209
6 210 76 75 74 227 211
6 167 213 274 239 246 247
6 214 123 282 283 259 281
5 216 209 85 106 217
5 218 89 88 108 219
5 220 109 90 226 221
5 222 272 273 166 223
7 224 205 235 86 296 264 225
5 226 90 91 211 227
5 228 288 289 229 268
6 230 151 74 75 141 231
7 232 229 289 207 138 233 265
5 234 278 279 86 235
6 236 212 270 252 290 291
6 285 290 252 253 248 284
6 240 151 230 215 241 258
5 242 220 221 150 243
6 244 277 251 228 268 269
6 246 212 236 72 202 247
5 248 253 262 263 249
6 275 294 295 271 239 274
7 252 270 271 295 238 262 253
4 254 218 219 255
5 256 280 281 259 257
6 258 241 237 257 259 283
4 260 107 87 261
5 262 238 286 287 263
5 264 296 297 232 265
6 266 223 166 244 269 267
7 268 229 232 297 245 267 269
5 270 212 246 239 271
5 272 159 158 276 273
6 274 213 288 228 251 275
7 276 158 250 294 275 251 277
5 278 260 261 206 279
6 280 89 218 254 214 281
6 282 243 150 240 258 283
7 284 293 88 89 280 256 285
5 286 250 158 159 287
5 288 213 167 207 289
6 290 285 256 257 237 291
4 292 108 88 293
5 294 250 286 238 295
6 296 86 279 206 245 297
CELL_TYPES 150
7
7
7
7
7
7
7
7
7
7
7
7
7
7
7
7
7
7
7
7
7
7
7
7
7
7
7
7
7
7
7
7
7
7
7
7
7
7
7
7
7
7
7
7
7
7
7
7
7
7
7
7
7
7
7
7
7
7
7
7
7
7
7
7
7
7
7
7
7
7
7
7
7
7
7
7
7
7
7
7
7
7
7
7
7
7
7
7
7
7
7
7
7
7
7
7
7
7
7
7
7
7
7
7
7
7
7
7
7
7
7
7
7
7
7
7
7
7
7
7
7
7
7
7
7
7
7
7
7
7
7
7
7
7
7
7
7
7
7
7
7
7
7
7
7
7
7
7
7
7
CELL_DATA 150
SCALARS cell_division_count float
LOOKUP_TABLE default
1
0
1
0
0
0
1
0
0
1
1
1
1
1
1
1
0
1
1
1
1
1
1
0
1
1
1
1
1
1
1
1
2
4
3
1
1
0
0
1
1
0
0
0
1
2
3
0
1
0
0
1
1
1
1
1
0
0
3
0
1
2
3
1
1
1
1
1
1
1
2
2
1
1
1
1
2
1
1
1
2
1
1
2
5
1
1
1
1
1
1
1
1
1
1
1
1
1
1
1
1
1
2
3
5
2
1
3
5
2
2
2
3
2
2
4
2
3
5
5
5
3
3
5
3
3
6
5
3
5
4
4
4
5
5
5
5
3
5
5
5
5
5
5
4
4
5
3
6
5
SCALARS cell_time float
LOOKUP_TABLE default
551
2.22229e+13
571
4.48239e+13
2.67348e+11
1.25633e+10
581
2.68223e+09
9.19769e+11
571
571
561
531
581
501
541
1.22656e+06
581
551
581
581
481
521
24363.4
581
581
581
581
581
471
531
471
431
171
321
421
561
1.00108e+18
2.94533e+15
531
521
105663
1925.76
637.338
511
411
211
628.006
521
3279.01
896.177
501
541
551
561
531
1.12104e+13
21746.3
1
2617.96
531
451
271
581
581
581
581
581
581
581
461
341
581
571
571
571
401
561
561
561
411
551
551
411
81
551
541
541
531
531
531
531
531
521
521
521
511
501
501
481
471
471
461
331
151
431
421
271
51
411
411
411
101
411
401
21
341
331
61
21
51
291
271
131
271
181
1
121
211
61
191
191
41
1
151
131
121
101
91
81
61
61
51
51
41
21
21
1
1
1
SCALARS cell_area float
LOOKUP_TABLE default
3.24492
3.30156
3.29157
3.35929
3.35224
3.341
3.31741
3.37605
3.34922
3.27928
3.33383
3.28278
3.36758
3.30917
3.30428
3.33086
3.40056
3.27701
3.32579
3.36497
3.37153
3.33235
3.33826
3.36654
3.34572
3.35411
3.41508
3.3666
3.37155
3.3197
3.24984
3.29629
3.3392
3.30484
3.34243
3.24934
3.34711
3.25986
3.26885
3.25604
3.24714
3.28742
3.26963
3.28793
3.22514
3.28341
3.26899
3.27293
3.27021
3.2605
3.27965
3.28454
3.22573
3.26603
3.25267
3.24878
3.21563
3.22237
3.28683
3.20579
3.25614
3.27241
3.28511
3.27732
3.33156
3.28856
3.3543
3.32299
3.28052
3.34513
3.40527
3.29818
3.33528
3.28467
3.24139
3.27248
3.3219
3.34065
3.23781
3.23065
3.26386
3.26163
3.3105
3.313
3.23492
3.2315
3.29865
3.2616
3.34379
3.28574
3.23236
3.20957
3.22511
3.30304
3.26131
3.25972
3.26179
3.32194
3.27415
3.29314
3.29049
3.26764
3.34181
3.22826
3.27322
3.24985
3.31034
3.31064
3.27021
3.27357
3.26954
3.28293
3.26943
3.29242
3.24817
3.2631
3.32079
3.36084
3.26909
3.29332
3.28627
3.30949
3.29135
3.27241
3.32604
3.29578
3.32329
3.29727
3.21536
3.23266
3.28839
3.22058
3.30013
3.32432
3.26504
3.29249
3.26683
3.2798
3.28915
3.28359
3.26676
3.25017
3.29532
3.26814
3.29596
3.29142
3.2823
56
0
0
SCALARS cell_perimeter float
LOOKUP_TABLE default
6.91697
6.88159
7.05318
7.04752
7.0217
6.86776
7.06804
7.32092
6.86937
7.00767
7.33766
6.96022
6.82311
7.11865
6.96192
6.7453
7.08331
6.938
7.00662
7.1957
6.93042
7.05862
7.08657
7.32409
7.34494
6.84862
7.50067
6.99532
6.79879
6.97077
6.94905
6.85698
7.72545
7.09581
6.79506
7.07109
7.41863
7.39513
7.65967
7.48763
8.0419
8.30008
7.87574
7.48156
7.31918
8.0266
7.08751
7.13245
7.6506
7.35462
7.63125
7.91243
7.61787
7.8964
7.57353
7.15373
7.34159
7.32199
7.14481
7.28044
7.5378
7.68864
7.25729
7.03113
6.95389
7.14907
7.04745
6.99666
7.11513
6.86548
7.47694
6.93516
7.01778
7.1563
7.2774
7.1273
7.46941
7.07111
6.94834
7.75217
7.17573
6.77807
7.03597
7.59348
6.90468
7.80548
6.80358
7.77932
7.04992
6.95933
7.65367
7.28796
7.49153
6.95391
7.74182
7.58394
7.17866
6.83126
7.82958
7.01882
7.02883
6.83559
7.06862
7.43886
6.86887
6.94108
6.8141
7.40913
6.86773
7.82727
7.08485
7.48729
7.12364
6.87054
7.09776
6.92671
6.99858
7.56118
7.54108
7.18969
7.06496
6.93774
7.54363
6.76608
6.99429
7.26946
7.61864
7.07337
7.33255
6.86806
6.93512
7.29391
7.47366
7.30361
6.92279
6.98544
7.10145
7.16218
6.93204
7.0888
7.47048
6.846
7.1141
6.86347
7.42974
7.07973
7.0296
0
0
0
SCALARS cell_frequency_modifier float
LOOKUP_TABLE default
3.39792e+16
3.84495e+12
1.28873e+12
2.78857e+12
1.28511e+11
6.69839e+09
3.33763e+06
3.82288e+08
3.11597e+11
5.04214e+10
1.3188e+08
1.39947e+08
23665.2
1.14243e+06
1.49175e+09
2.77901e+10
2.27173e+07
351324
7077
57.4909
24880.6
420316
8.65145e+06
145431
3708.12
189.517
13.5082
130.034
4066.62
9484.6
1.54288e+07
325.168
17.0697
4.28317
2.62767
21087.8
707.873
1.41765e+18
9.19843e+16
1.14534e+15
7.44583e+10
3.56889e+07
3.32569e+07
12923.6
121100
12.7913
106.609
117.19
1694.28
6.37699e+07
1.21452e+07
1.00791e+08
1.6464e+15
1.72821e+17
6.44611e+18
10000
9.61551e+13
2.89541e+07
1.29329
4.18943e+06
6.01569e+13
14.3423
1.81587
1.28363e+09
5.3128e+06
612613
70.0758
1230.9
8770.46
116.011
8.48501
26.3258
518.479
4.84365e+10
2.65129e+11
2.48936e+07
7.22744
556257
1.77856e+06
3.22597e+18
121.937
5.37982e+16
1245.7
5.99422
104.9
1.04394e+17
1.39087e+09
5.51839e+15
1035.33
11802.6
2.79499e+16
10000
5.38512e+12
724369
1.08151e+12
227011
13532.2
6.55723e+07
2.83989e+09
207594
84417
110140
14.6745
173.341
2.81916
11474.6
97.0929
1.80783
10.1809
62.4976
11.9491
11.5874
23.5567
2.24412
3494.05
271.473
48.8333
2.69536
40.7284
1.29011
1.02317
7.1783
2.86064
4.98941
3.07953
0.902224
0.44946
0.617319
104.126
144.309
3.25667
107.089
0.802118
0.833135
100.012
1.21453
176.988
2.70796
1.39517
1.23283
102.466
103.142
2.86738
100.516
0.937503
5.32363
2.54271
1
1
1
SCALARS cell_area_modifier float
LOOKUP_TABLE default
100
0.566474
0.755784
0.323432
0.334471
0.36796
0.47496
0.29727
0.33832
1.84906
0.392523
1.4067
0.306569
0.525939
0.545455
0.408901
0.294294
2.11511
0.420601
0.316469
0.303406
0.397835
0.382315
0.313099
0.34629
0.330709
0.288518
0.3098
0.300306
0.467409
100
0.626866
0.377407
0.535519
0.358974
100
0.342258
100
100
100
100
0.951456
7.53846
0.92163
100
1.28384
100
2.9697
4.98305
100
1.73964
1.18072
100
100
100
100
100
100
0.983278
100
100
3.72152
1.09294
1.97315
0.403292
0.867257
0.32703
0.439462
1.55556
0.350417
0.291378
0.601227
0.387352
1.13514
100
3.30337
0.453005
0.372624
100
100
100
100
0.499151
0.482759
100
100
0.589178
100
0.354644
1.05376
100
100
100
0.555766
100
100
100
0.446131
2.27907
0.701671
0.818942
100
0.363412
100
2.69725
100
0.507772
0.490818
6
2.47059
10.1379
1.34247
15.4737
0.736842
100
100
0.460094
0.319913
32.6667
0.685315
1.0173
0.516696
0.796748
4.26087
0.414669
0.654788
0.43299
0.613779
100
100
0.893617
100
0.577603
0.426705
100
0.718826
100
1.64246
0.842407
1.23013
100
100
0.669704
100
0.640523
0.775726
1.47739
1
1
1
SCALARS cell_Gaussian_modifier float
LOOKUP_TABLE default
3.39792e+14
6.78751e+12
1.70516e+12
8.62181e+12
3.84222e+11
1.82041e+10
7.02718e+06
1.286e+09
9.21014e+11
2.72687e+10
3.3598e+08
9.94861e+07
77193.6
2.17217e+06
2.73487e+09
6.79628e+10
7.71924e+07
166102
16825.9
181.663
82004.6
1.05651e+06
2.26291e+07
464488
10708.2
573.064
46.8192
419.735
13541.6
20291.9
154288
518.721
45.2289
7.99817
7.31994
210.878
2068.24
1.41765e+16
9.19843e+14
1.14534e+13
7.44583e+08
3.75097e+07
4.41163e+06
14022.6
1211
9.9633
1.06609
39.462
340.009
637699
6.98145e+06
8.53642e+07
1.6464e+13
1.72821e+15
6.44611e+16
100
9.61551e+11
289541
1.31528
41894.3
6.01569e+11
3.85389
1.66146
6.50548e+08
1.31736e+07
706381
214.279
2800.92
5638.15
331.067
29.1203
43.7867
1338.52
4.26703e+10
2.65129e+09
7.53582e+06
15.9545
1.49281e+06
17785.6
3.22597e+16
1.21937
5.37982e+14
2495.63
12.4166
1.049
1.04394e+15
2.36069e+09
5.51839e+13
2919.35
11200.5
2.79499e+14
100
5.38512e+10
1.30337e+06
1.08151e+10
2270.11
135.322
1.4698e+08
1.24608e+09
295857
103081
1101.4
40.3799
1.73341
1.0452
114.746
191.213
3.68329
1.69682
25.2966
1.17865
8.63143
1.52237
3.04559
34.9405
2.71473
106.138
8.4253
1.24679
1.88251
1.00577
13.8927
3.5904
1.17098
7.42648
1.37789
1.03804
1.00577
1.04126
1.44309
3.64437
1.07089
1.3887
1.95248
1.00012
1.6896
1.76988
1.64872
1.65617
1.0022
1.02466
1.03142
4.28157
1.00516
1.46365
6.86278
1.72109
1
1
1
