# vtk DataFile Version 3.0
2D-vertex
ASCII
DATASET UNSTRUCTURED_GRID

POINTS 504 float
-0.0455821 -2.49496 0
2.42055 -2.42948 0
2.86361 -1.50886 0
1.90554 -0.384184 0
-0.367797 -0.105199 0
-1.16821 -1.54542 0
3.40109 -1.50671 0
4.02459 -0.689571 0
3.19388 0.86771 0
2.1124 0.614261 0
1.00835 1.92029 0
-0.671142 2.50583 0
-1.50666 1.28094 0
-1.68317 1.24732 0
-2.27932 -0.367789 0
-1.81702 -1.27828 0
4.59297 -0.883746 0
5.46774 -0.0549773 0
3.73894 1.57105 0
3.44129 1.51735 0
2.63619 2.51917 0
1.53755 2.49936 0
1.11409 6.04264 0
0.15198 6.06149 0
-0.716469 4.27886 0
-2.01665 3.48675 0
-2.02991 1.62212 0
-3.35043 1.39264 0
-3.90139 0.405402 0
-3.63342 -0.31856 0
6.5418 -0.111618 0
7.21571 0.579241 0
7.11824 1.89927 0
4.98229 3.17453 0
5.49656 3.72767 0
3.22052 5.15007 0
2.56634 6.40554 0
1.60853 6.62269 0
0.73649 9.61083 0
-0.945526 9.70804 0
-0.685576 6.91224 0
-2.33109 6.08406 0
-3.39668 4.66132 0
-4.40079 4.74055 0
-5.16807 3.41522 0
-6.60177 3.16524 0
-6.92442 2.12878 0
-5.45061 0.709569 0
7.59542 2.50913 0
7.32436 3.55183 0
6.6176 4.00099 0
6.04376 6.06649 0
3.74016 7.3536 0
3.7106 8.12279 0
2.29015 9.68193 0
2.86607 10.3798 0
-1.96199 11.008 0
-1.92457 10.2964 0
-3.14581 9.12507 0
-2.88463 7.08352 0
-4.59164 7.50497 0
-5.97952 6.28766 0
-7.95575 4.92442 0
-7.82905 4.37527 0
8.29438 3.91447 0
8.29459 3.91696 0
6.99557 5.99986 0
7.49348 7.19258 0
6.36434 8.46949 0
6.62291 9.14355 0
6.00421 10.1136 0
5.85839 10.452 0
-2.73091 13.2744 0
-2.9217 13.0867 0
-6.36723 10.7413 0
-5.68826 9.83724 0
-6.41244 8.61913 0
-6.30857 8.39129 0
-8.93271 5.48525 0
-8.78621 5.10853 0
9.8473 4.12252 0
10.2355 5.07061 0
9.52768 6.11475 0
10.7169 6.455 0
10.5576 8.00411 0
10.8238 8.75206 0
10.3451 13.5969 0
11.213 15.9969 0
-9.84797 16.4667 0
-9.80926 16.2435 0
-10.3507 10.197 0
-10.0359 9.60666 0
-10.3768 9.00838 0
-9.63556 7.85571 0
-10.4242 6.62949 0
-9.98178 5.62179 0
3.24125 -4.32795 0
4.47204 -3.84092 0
5.32877 -3.4785 0
7.76669 -2.00615 0
9.13775 -0.637772 0
10.6003 1.61568 0
10.7016 1.77629 0
11.4756 2.81427 0
12.3852 4.69695 0
12.6479 5.4728 0
13.0715 9.0076 0
13.5965 16.4998 0
-12.974 17.1962 0
-12.841 10.2174 0
-12.7782 8.89484 0
-12.4363 6.31823 0
-11.6006 4.35673 0
-10.7659 3.23549 0
-10.1733 2.49046 0
-9.29068 1.13334 0
-7.41875 -1.05542 0
-5.39198 -2.5189 0
-3.33426 -3.58511 0
-0.37119 -4.5245 0
13.0011 10.8257 0
9.25842 10.867 0
-13.0313 13.0007 0
-10.352 13.5312 0
-0.495409 3.95852 0
0.861589 4.00395 0
-1.97175 6.02127 0
-1.33162 4.29643 0
4.53989 5.28644 0
4.9871 6.19321 0
0.446263 11.0715 0
0.218925 10.1312 0
-1.2065 8.19986 0
-2.48755 7.94925 0
6.04307 6.06888 0
5.35543 8.01838 0
4.3992 8.55396 0
4.43177 9.75756 0
2.48148 11.2369 0
2.47936 11.2356 0
-2.64992 11.3816 0
-4.1972 9.94272 0
-3.76476 9.18372 0
-4.69451 8.08429 0
1.09225 1.29709 0
-0.410759 0.360879 0
6.30664 2.18166 0
5.13402 0.6803 0
4.9803 3.17604 0
2.98831 4.05932 0
-9.23728 11.7239 0
-6.16097 11.3514 0
2.98582 4.0593 0
1.54559 4.79969 0
-9.60711 7.78611 0
-8.19098 7.1245 0
-1.20349 -1.56142 0
-1.73331 -4.22419 0
3.70338 31.41 0
4.13037 33.3544 0
0.784666 -2.18844 0
0.960987 -0.749002 0
2.6409 8.56447 0
1.40932 7.54039 0
9.06537 10.3707 0
6.0084 10.1204 0
9.51061 21.9991 0
0.470733 12.7457 0
-3.08132 -0.598273 0
-3.89193 -3.32393 0
-4.62978 2.46606 0
-5.55231 1.33453 0
-6.02244 -2.11843 0
-4.87069 0.291098 0
0.427869 8.08032 0
-0.576459 7.65468 0
9.48031 5.94692 0
7.82143 5.2441 0
5.25432 -0.575315 0
6.86049 -2.65284 0
1.17867 -4.66511 0
1.30878 -2.64579 0
-6.50633 1.48846 0
-8.15188 -0.339053 0
-5.62662 5.17982 0
-6.9638 4.01449 0
7.40096 2.02202 0
9.75834 0.209755 0
-12.6635 7.69491 0
-9.63977 7.84894 0
13.0763 7.49977 0
10.9967 7.47357 0
-3.0135 3.719 0
-3.95655 2.42788 0
-9.75785 1.89884 0
-6.96812 3.45906 0
-3.75426 6.92735 0
-4.5629 5.05483 0
-7.04813 7.264 0
-6.63814 6.40997 0
8.52201 7.31792 0
8.78663 7.85053 0
-0.747106 12.637 0
-0.645279 11.8399 0
13.0048 10.835 0
10.5886 12.1288 0
10.4864 14.6347 0
2.32703 11.5505 0
8.27937 9.03142 0
9.65343 9.8026 0
-7.59508 8.77714 0
-7.92883 9.59872 0
-2.20207 14.8583 0
1.15527 13.9279 0
-10.2175 14.1057 0
-4.28468 13.0787 0
9.65259 9.80497 0
13.0042 10.1626 0
-10.8556 15.5123 0
-13.146 16.1256 0
-12.8641 11.3046 0
-9.48457 11.3441 0
12.9245 19.3348 0
10.5815 17.7908 0
8.92686 11.3236 0
6.83841 11.4817 0
-9.48443 11.3415 0
-7.58989 10.4855 0
2.82423 14.4611 0
4.63626 12.9852 0
-4.68438 11.6972 0
-3.85718 10.8621 0
5.43159 12.7759 0
4.4934 11.2757 0
13.3847 12.6288 0
10.8346 12.7654 0
-2.86701 14.5064 0
-4.81798 14.0704 0
-6.02797 29.1961 0
0.305476 15.3336 0
-6.80603 12.0335 0
-4.7511 13.4464 0
-12.9138 12.0713 0
-9.72728 12.4456 0
6.87443 16.7389 0
8.79589 15.2875 0
-0.819926 14.1643 0
-0.505764 12.868 0
-10.2274 20.068 0
-12.7618 20.2082 0
2.34189 31.5998 0
2.76392 15.3986 0
-3.06712 16.8647 0
-9.9622 20.5137 0
-10.8883 14.654 0
-13.1874 14.1763 0
-6.84773 15.7671 0
-6.41028 14.4997 0
-6.66507 12.6132 0
-7.54553 13.7186 0
13.6119 14.626 0
11.1885 15.1926 0
-10.1319 22.2276 0
-12.1529 23.484 0
6.6016 12.4949 0
5.43334 12.7741 0
10.5783 16.5957 0
8.82669 16.0807 0
4.45668 13.9454 0
7.28323 16.3994 0
-1.96429 15.9424 0
-0.195298 16.2171 0
12.2257 25.4754 0
10.198 24.7937 0
0.677588 15.2603 0
1.7846 16.0523 0
8.97468 27.1231 0
4.62807 16.1111 0
13.4916 13.6255 0
10.6642 14.0276 0
-8.63085 15.5427 0
-8.78577 14.625 0
-9.61511 12.7437 0
-7.58221 13.3592 0
-9.90933 19.4429 0
-6.45019 17.2682 0
0.574338 32.4993 0
0.435619 34.0274 0
2.16999 13.7908 0
2.90442 12.3511 0
-3.97345 16.1586 0
-4.04235 15.3062 0
-12.8365 19.0054 0
-10.3 18.8608 0
0.321378 17.5044 0
0.0315501 17.3452 0
8.31615 13.6045 0
7.89192 14.403 0
9.2036 11.9317 0
8.14853 13.2221 0
-10.4906 21.3649 0
-12.6409 21.5205 0
-2.46189 16.7655 0
-1.43344 17.9793 0
2.04324 16.9904 0
4.0381 17.0487 0
6.90476 14.4929 0
6.68925 14.9032 0
-7.51129 18.9762 0
-7.27346 19.2238 0
-9.39514 16.9302 0
-6.71721 16.7028 0
4.57062 15.9752 0
5.24587 14.9274 0
-9.11137 24.0256 0
-3.67105 18.325 0
11.6518 27.0785 0
10.1356 26.3959 0
-7.7382 30.8018 0
-6.70737 29.199 0
9.2675 18.1148 0
8.25573 16.6505 0
12.5788 21.36 0
10.0349 21.2128 0
4.88969 18.3493 0
6.75174 19.3848 0
1.87981 19.1839 0
4.22461 18.7148 0
-0.016646 25.2653 0
-2.18995 24.1177 0
-2.2587 22.2326 0
-4.11645 20.1792 0
-6.48148 16.2528 0
-4.23604 15.2331 0
-8.99673 22.3379 0
-7.94725 20.5759 0
6.60443 24.6491 0
7.73754 21.5186 0
-12.8998 17.8801 0
-9.72384 17.6812 0
-9.69204 17.7314 0
-7.4609 18.2052 0
0.372644 19.3227 0
0.576816 19.0641 0
4.53149 30.7444 0
2.66925 22.5829 0
7.23717 32.1375 0
6.50534 30.5812 0
-11.0989 27.0774 0
-9.45695 26.0788 0
-5.49715 17.4315 0
-5.16011 18.2841 0
8.96121 18.7356 0
7.74198 18.4164 0
1.97548 17.0899 0
2.52533 18.1928 0
10.8481 17.2244 0
13.4316 17.5749 0
12.7309 19.901 0
9.24487 18.5294 0
-8.61511 26.4282 0
-4.0638 20.3241 0
-1.72554 18.8356 0
-3.28322 18.9624 0
3.92045 23.1171 0
4.65545 22.6088 0
-5.73725 19.1245 0
-5.37229 19.9685 0
4.9246 18.0355 0
6.87557 17.2771 0
-1.10124 21.8559 0
0.489132 23.1982 0
1.30423 28.2272 0
4.16078 28.7729 0
-4.0609 30.8196 0
-4.86732 32.5002 0
-1.77408 31.4311 0
-1.11453 25.1073 0
-11.8273 25.0819 0
-9.79901 24.8969 0
-1.33634 19.3312 0
-2.99916 20.668 0
-6.58911 22.2495 0
-5.12292 21.8834 0
7.05971 28.2095 0
5.02691 28.1073 0
5.59452 21.1341 0
7.04797 21.945 0
9.93064 25.0046 0
8.00654 23.9712 0
12.5005 23.5219 0
10.2636 23.7451 0
-7.40173 28.06 0
-2.92133 21.8577 0
9.05026 30.6853 0
7.56443 29.6143 0
2.9679 20.3699 0
4.24937 19.7228 0
-10.3162 28.3471 0
-8.60049 27.2711 0
0.415441 26.5518 0
4.08124 24.5215 0
0.884071 20.614 0
2.49157 21.1146 0
-7.88743 20.7007 0
-6.49924 21.0549 0
9.38215 19.9954 0
7.7619 20.3194 0
-0.766626 21.0465 0
-1.5984 20.0565 0
12.6632 20.2746 0
9.38364 19.9934 0
-1.39278 24.3694 0
-0.341397 23.071 0
-4.79672 22.4236 0
-3.81188 22.5712 0
-2.84174 24.5762 0
-3.5667 24.2027 0
-12.067 23.7963 0
-9.296 23.6082 0
5.05693 24.9259 0
5.89184 24.3118 0
0.299739 28.4296 0
-0.0264575 31.9165 0
-6.88804 23.5271 0
-6.02583 24.337 0
-1.11739 32.1835 0
-1.52284 33.7277 0
-4.24165 27.9793 0
-2.82586 28.4255 0
9.53297 22.9883 0
8.14894 23.3329 0
10.8565 28.5675 0
8.98982 27.4999 0
5.82235 23.2047 0
7.04035 22.4983 0
2.94895 20.8205 0
4.61305 21.7404 0
3.33107 25.0972 0
2.97403 27.1196 0
5.57898 20.4722 0
6.77645 19.7233 0
2.25728 22.913 0
2.47433 24.7142 0
12.5264 22.4353 0
9.7682 22.45 0
-1.9138 29.0403 0
-0.639596 27.7749 0
-5.46004 30.1386 0
-6.34725 31.7065 0
0.526536 21.0586 0
1.07414 22.5549 0
-5.581 24.228 0
-4.79984 24.892 0
-8.7578 22.7595 0
-6.59067 22.2482 0
5.33307 26.4499 0
6.9849 26.2577 0
-8.96174 29.8478 0
-7.7649 28.0881 0
-4.83613 25.7642 0
-3.81622 26.4569 0
1.87966 29.1036 0
3.44055 28.5587 0
-4.55113 30.0956 0
-3.82457 28.5349 0
4.86362 26.8688 0
3.5906 26.4619 0
1.91925 27.0261 0
1.68346 26.6337 0
-2.91853 26.103 0
-2.23346 26.7058 0
2.17876 32.139 0
2.86951 33.7338 0
0.828215 24.403 0
2.08456 24.9635 0
-6.83846 25.9535 0
-6.53214 26.6582 0
1.25283 30.4437 0
0.379612 30.6046 0
-1.8044 26.5852 0
-0.650643 27.4405 0
5.74376 30.3389 0
5.67746 28.4843 0
-2.66563 31.5646 0
-3.28884 33.1805 0
-3.26668 30.7527 0
-2.41307 29.0402 0
8.02208 26.2736 0
8.71586 24.8189 0
-5.37768 28.0563 0
-5.9876 26.7352 0
7.15973 28.059 0
6.59599 26.7481 0
-1.24295 30.1488 0
-0.151591 29.9918 0
-8.14152 24.2661 0
-7.82292 25.7659 0
5.65339 32.85 0
5.0714 30.9285 0
9.61248 30.0908 0
8.26098 28.1929 0
3.23104 31.1877 0
2.85465 29.1979 0

CELLS 756 2268
2 160 0
2 1 2
2 2 3
2 161 4
2 4 5
2 5 0
2 2 6
2 6 7
2 7 8
2 8 9
2 3 9
2 9 144
2 10 11
2 11 12
2 145 4
2 12 13
2 13 14
2 15 14
2 5 156
2 7 16
2 17 178
2 147 17
2 19 18
2 19 8
2 20 19
2 21 20
2 10 21
2 153 125
2 23 22
2 24 23
2 24 124
2 127 24
2 26 25
2 26 13
2 27 26
2 28 27
2 29 28
2 14 168
2 30 17
2 30 31
2 32 31
2 32 146
2 18 33
2 33 148
2 128 35
2 20 152
2 35 36
2 37 36
2 22 37
2 37 163
2 38 131
2 175 40
2 40 23
2 126 40
2 42 41
2 25 192
2 43 42
2 43 44
2 193 27
2 45 44
2 46 45
2 47 171
2 173 47
2 48 186
2 48 49
2 49 50
2 34 50
2 50 51
2 52 129
2 36 52
2 52 53
2 53 162
2 54 38
2 55 54
2 139 55
2 57 56
2 39 57
2 58 57
2 59 133
2 41 59
2 59 196
2 61 60
2 197 43
2 199 61
2 62 63
2 195 185
2 49 64
2 64 65
2 177 65
2 51 134
2 67 66
2 68 67
2 53 136
2 69 68
2 70 69
2 55 137
2 165 70
2 233 71
2 73 72
2 140 56
2 215 73
2 74 75
2 58 142
2 76 75
2 77 76
2 60 143
2 77 198
2 78 79
2 79 62
2 65 80
2 80 81
2 81 176
2 67 200
2 82 83
2 83 191
2 69 208
2 84 85
2 164 216
2 71 225
2 86 279
2 158 502
2 88 89
2 290 252
2 254 214
2 90 91
2 91 211
2 91 92
2 92 93
2 93 210
2 189 93
2 94 95
2 95 78
2 96 1
2 96 97
2 97 6
2 97 98
2 16 98
2 179 99
2 99 30
2 31 100
2 187 101
2 101 48
2 101 102
2 102 64
2 102 103
2 103 80
2 81 104
2 104 105
2 83 105
2 105 190
2 85 106
2 217 120
2 87 107
2 108 88
2 255 122
2 109 90
2 109 110
2 92 110
2 110 188
2 111 94
2 95 112
2 112 113
2 113 79
2 113 114
2 63 114
2 114 194
2 115 46
2 116 47
2 116 172
2 117 29
2 169 118
2 118 15
2 157 119
2 0 119
2 119 180
2 99 100
2 103 104
2 249 292
2 111 112
2 183 116
2 120 204
2 121 224
2 120 121
2 122 242
2 123 282
2 122 123
2 124 11
2 125 21
2 124 125
2 41 126
2 127 25
2 126 127
2 34 128
2 129 51
2 128 129
2 203 130
2 131 39
2 130 131
2 39 132
2 133 58
2 132 133
2 134 66
2 135 68
2 134 135
2 136 135
2 137 70
2 136 137
2 207 138
2 130 139
2 139 138
2 140 73
2 75 141
2 231 140
2 142 141
2 143 77
2 142 143
2 144 10
2 145 12
2 144 145
2 146 33
2 147 18
2 146 147
2 148 34
2 149 35
2 148 149
2 221 150
2 151 74
2 150 240
2 152 149
2 153 22
2 152 153
2 94 154
2 155 78
2 154 155
2 156 15
2 157 118
2 156 157
2 266 87
2 357 222
2 159 158
2 181 160
2 161 3
2 160 161
2 162 54
2 163 174
2 162 163
2 164 121
2 71 165
2 165 164
2 445 166
2 247 167
2 337 166
2 168 29
2 169 117
2 168 169
2 44 170
2 171 182
2 170 171
2 172 117
2 173 28
2 172 173
2 174 38
2 175 132
2 174 175
2 176 82
2 177 66
2 176 177
2 178 16
2 179 98
2 178 179
2 180 96
2 181 1
2 180 181
2 182 46
2 183 115
2 182 183
2 61 184
2 185 63
2 184 185
2 186 32
2 187 100
2 186 187
2 188 111
2 189 154
2 188 189
2 190 106
2 191 84
2 190 191
2 192 42
2 193 170
2 192 193
2 194 115
2 195 45
2 194 195
2 196 60
2 197 184
2 196 197
2 198 155
2 199 62
2 198 199
2 200 82
2 201 84
2 200 201
2 72 202
2 203 56
2 202 203
2 204 234
2 205 235
2 205 204
2 261 206
2 167 207
2 206 245
2 208 201
2 209 85
2 208 209
2 210 76
2 227 74
2 210 211
2 236 72
2 213 167
2 239 274
2 214 123
2 230 215
2 241 237
2 216 209
2 217 106
2 216 217
2 89 218
2 219 108
2 218 219
2 220 109
2 221 226
2 220 221
2 222 358
2 320 223
2 223 222
2 224 298
2 264 225
2 225 224
2 226 90
2 227 211
2 226 227
2 228 288
2 289 229
2 228 268
2 151 230
2 231 141
2 230 231
2 229 232
2 233 138
2 265 233
2 234 278
2 235 86
2 235 234
2 236 212
2 257 237
2 291 236
2 248 284
2 246 239
2 271 295
2 240 151
2 241 215
2 240 258
2 242 220
2 243 150
2 242 243
2 277 244
2 232 306
2 245 267
2 212 246
2 247 202
2 246 247
2 253 248
2 301 249
2 249 248
2 448 238
2 251 228
2 294 354
2 252 302
2 300 253
2 335 309
2 218 254
2 255 219
2 254 255
2 280 256
2 259 281
2 256 257
2 258 241
2 259 257
2 283 259
2 260 107
2 261 87
2 260 261
2 238 319
2 449 318
2 263 262
2 299 264
2 232 265
2 265 264
2 223 356
2 244 269
2 267 266
2 268 229
2 321 267
2 313 307
2 212 270
2 271 239
2 270 271
2 272 316
2 273 388
2 272 273
2 274 213
2 275 251
2 274 275
2 276 433
2 277 312
2 488 276
2 278 260
2 279 206
2 278 279
2 89 280
2 281 214
2 280 281
2 282 243
2 283 258
2 282 283
2 284 293
2 311 285
2 308 284
2 472 286
2 473 287
2 287 286
2 288 213
2 289 207
2 288 289
2 285 350
2 333 291
2 291 290
2 292 338
2 293 340
2 293 292
2 403 345
2 330 370
2 295 294
2 86 296
2 297 245
2 296 297
2 298 205
2 299 296
2 298 299
2 262 300
2 301 263
2 300 301
2 302 270
2 303 295
2 302 303
2 304 275
2 305 277
2 304 305
2 306 297
2 307 269
2 306 307
2 308 341
2 315 252
2 309 308
2 88 310
2 311 332
2 310 311
2 312 251
2 313 268
2 312 313
2 314 419
2 309 366
2 315 363
2 316 432
2 317 276
2 317 316
2 318 458
2 319 392
2 319 318
2 359 320
2 269 321
2 321 320
2 322 444
2 166 323
2 323 322
2 324 368
2 369 353
2 324 325
2 343 326
2 327 324
2 326 355
2 478 462
2 416 329
2 377 328
2 330 329
2 314 496
2 361 381
2 332 256
2 333 237
2 332 333
2 262 334
2 335 253
2 334 404
2 421 336
2 441 407
2 435 431
2 338 108
2 339 310
2 338 339
2 340 339
2 341 285
2 340 341
2 303 362
2 343 294
2 342 343
2 344 158
2 328 474
2 373 344
2 346 498
2 482 347
2 347 346
2 348 378
2 349 379
2 348 349
2 350 290
2 351 315
2 350 351
2 411 352
2 325 353
2 353 352
2 354 304
2 355 327
2 354 355
2 356 266
2 357 107
2 356 357
2 358 410
2 352 359
2 359 358
2 360 349
2 331 361
2 497 360
2 362 380
2 331 363
2 363 362
2 345 364
2 437 365
2 365 364
2 366 351
2 367 331
2 366 367
2 368 305
2 369 244
2 368 369
2 408 450
2 371 451
2 371 413
2 447 422
2 466 456
2 439 468
2 426 376
2 485 375
2 375 374
2 484 486
2 412 377
2 376 494
2 378 418
2 379 314
2 379 378
2 380 342
2 393 330
2 409 380
2 455 382
2 383 361
2 382 383
2 395 384
2 373 385
2 384 483
2 386 440
2 337 387
2 387 386
2 388 317
2 336 389
2 489 388
2 390 272
2 391 273
2 390 391
2 392 459
2 381 393
2 415 417
2 394 346
2 395 347
2 394 395
2 326 396
2 397 327
2 396 397
2 398 348
2 399 360
2 398 399
2 328 400
2 364 401
2 475 469
2 342 402
2 403 436
2 402 403
2 404 335
2 405 367
2 404 405
2 323 406
2 407 337
2 406 407
2 370 408
2 409 381
2 408 409
2 410 322
2 411 406
2 410 411
2 329 412
2 413 370
2 412 413
2 383 414
2 415 393
2 414 415
2 428 490
2 392 477
2 417 416
2 418 263
2 419 454
2 418 419
2 401 420
2 421 434
2 420 421
2 422 372
2 286 423
2 495 479
2 382 424
2 425 452
2 424 425
2 423 426
2 427 287
2 426 427
2 461 428
2 429 471
2 465 429
2 391 430
2 431 389
2 430 431
2 432 500
2 501 433
2 433 432
2 434 365
2 435 387
2 434 435
2 436 396
2 437 386
2 436 437
2 438 401
2 463 373
2 438 467
2 440 397
2 441 325
2 440 441
2 345 442
2 443 438
2 442 443
2 444 390
2 445 430
2 444 445
2 487 446
2 481 447
2 446 447
2 374 464
2 449 375
2 448 449
2 450 402
2 451 442
2 450 451
2 452 414
2 453 417
2 452 453
2 454 334
2 455 405
2 454 455
2 420 456
2 457 336
2 493 457
2 458 398
2 459 399
2 458 459
2 453 460
2 461 470
2 460 461
2 372 462
2 463 439
2 503 463
2 464 448
2 465 428
2 464 465
2 385 466
2 467 439
2 466 467
2 468 372
2 469 400
2 468 469
2 470 416
2 471 480
2 470 471
2 250 472
2 473 159
2 472 473
2 474 371
2 475 443
2 474 475
2 425 476
2 491 460
2 476 477
2 250 478
2 479 423
2 478 479
2 480 377
2 481 400
2 480 481
2 499 482
2 483 385
2 482 483
2 376 484
2 485 427
2 484 485
2 486 374
2 487 429
2 486 487
2 457 488
2 489 389
2 488 489
2 490 238
2 491 477
2 490 491
2 384 492
2 493 456
2 492 493
2 494 446
2 495 422
2 494 495
2 496 424
2 497 476
2 496 497
2 498 159
2 499 344
2 498 499
2 500 394
2 501 492
2 500 501
2 502 250
2 503 462
2 502 503

CELL_TYPES 756
3
3
3
3
3
3
3
3
3
3
3
3
3
3
3
3
3
3
3
3
3
3
3
3
3
3
3
3
3
3
3
3
3
3
3
3
3
3
3
3
3
3
3
3
3
3
3
3
3
3
3
3
3
3
3
3
3
3
3
3
3
3
3
3
3
3
3
3
3
3
3
3
3
3
3
3
3
3
3
3
3
3
3
3
3
3
3
3
3
3
3
3
3
3
3
3
3
3
3
3
3
3
3
3
3
3
3
3
3
3
3
3
3
3
3
3
3
3
3
3
3
3
3
3
3
3
3
3
3
3
3
3
3
3
3
3
3
3
3
3
3
3
3
3
3
3
3
3
3
3
3
3
3
3
3
3
3
3
3
3
3
3
3
3
3
3
3
3
3
3
3
3
3
3
3
3
3
3
3
3
3
3
3
3
3
3
3
3
3
3
3
3
3
3
3
3
3
3
3
3
3
3
3
3
3
3
3
3
3
3
3
3
3
3
3
3
3
3
3
3
3
3
3
3
3
3
3
3
3
3
3
3
3
3
3
3
3
3
3
3
3
3
3
3
3
3
3
3
3
3
3
3
3
3
3
3
3
3
3
3
3
3
3
3
3
3
3
3
3
3
3
3
3
3
3
3
3
3
3
3
3
3
3
3
3
3
3
3
3
3
3
3
3
3
3
3
3
3
3
3
3
3
3
3
3
3
3
3
3
3
3
3
3
3
3
3
3
3
3
3
3
3
3
3
3
3
3
3
3
3
3
3
3
3
3
3
3
3
3
3
3
3
3
3
3
3
3
3
3
3
3
3
3
3
3
3
3
3
3
3
3
3
3
3
3
3
3
3
3
3
3
3
3
3
3
3
3
3
3
3
3
3
3
3
3
3
3
3
3
3
3
3
3
3
3
3
3
3
3
3
3
3
3
3
3
3
3
3
3
3
3
3
3
3
3
3
3
3
3
3
3
3
3
3
3
3
3
3
3
3
3
3
3
3
3
3
3
3
3
3
3
3
3
3
3
3
3
3
3
3
3
3
3
3
3
3
3
3
3
3
3
3
3
3
3
3
3
3
3
3
3
3
3
3
3
3
3
3
3
3
3
3
3
3
3
3
3
3
3
3
3
3
3
3
3
3
3
3
3
3
3
3
3
3
3
3
3
3
3
3
3
3
3
3
3
3
3
3
3
3
3
3
3
3
3
3
3
3
3
3
3
3
3
3
3
3
3
3
3
3
3
3
3
3
3
3
3
3
3
3
3
3
3
3
3
3
3
3
3
3
3
3
3
3
3
3
3
3
3
3
3
3
3
3
3
3
3
3
3
3
3
3
3
3
3
3
3
3
3
3
3
3
3
3
3
3
3
3
3
3
3
3
3
3
3
3
3
3
3
3
3
3
3
3
3
3
3
3
3
3
3
3
3
3
3
3
3
3
3
3
3
3
3
3
3
3
3
3
3
3
3
3
3
3
3
3
3
3
3
3
3
3
3
3
3
3
3
3
3
3
3
3
3
3
3
3
3
3
3
3
3
3
3
3
3
3
3
3
3
3
3
3
3
3
3
3
3
3
3
3
3
3
3
3
3
3
3
3
3
3
3
3
3
3
3
3
3
3
3
3
3
3
3
3
3
3
3
3
3
3
3
3
3
3
3
3
3
3
3
3
3
3
3
3
3
3
3
3
3
3
3
3
3
3
3
3
3
3
3
3
3
3
3
3
3
3

CELL_DATA 756
SCALARS current_Length float
LOOKUP_TABLE default
0.885023
1.02169
1.47743
1.47653
1.64769
1.47035
0.537491
1.02784
1.76499
1.11078
1.01965
1.22759
1.77863
1.48271
0.468054
0.179681
1.72162
1.02113
0.0387332
0.600639
0.562406
0.807467
0.302459
0.695159
1.28523
1.09882
0.784457
1.04932
0.962292
1.98292
0.38921
0.615404
1.86468
0.510592
1.3403
1.13057
0.771966
0.834463
1.07555
0.965111
1.32362
0.859327
2.02905
0.00249731
1.32639
1.57932
1.41568
0.982127
0.76219
0.939064
0.733918
0.750417
1.19385
1.56463
1.77754
1.02355
1.00723
1.53141
1.19963
1.45533
1.08552
0.633187
0.715138
0.524497
1.07736
0.837406
1.15388
2.14373
1.70334
1.50886
0.769756
1.1573
1.55529
0.904825
0.939118
0.712548
1.14226
1.6922
0.952446
1.14251
0.883544
1.84609
0.353629
0.66988
0.56358
0.555447
1.03559
0.0025003
1.40897
0.00249074
1.29248
1.70454
0.812456
0.721957
1.15054
1.68481
0.00803144
1.5943
0.267625
0.782809
1.363
1.13059
0.621722
1.41711
0.250403
0.588383
1.34822
0.404212
0.85062
1.56626
1.02448
1.15682
1.03613
1.2369
1.05632
1.66025
0.793879
0.815371
1.42153
0.536048
0.522067
0.22657
1.14891
0.866376
0.668992
2.10711
0.688558
1.37042
2.23888
0.00797233
1.10055
1.05791
2.06827
1.32365
2.56816
0.930226
2.69706
1.11329
2.25602
2.27494
1.63875
3.13488
0.18992
3.21974
1.29474
2.08871
2.18193
0.819131
2.16652
2.07174
2.26228
0.663111
2.43604
3.21
1.18586
2.49044
1.32409
2.40409
1.2054
2.03607
2.05448
1.39781
2.72533
0.951994
3.00795
0.722895
2.56712
2.64363
1.7549
2.81675
0.615806
2.76106
1.39483
2.05549
1.55623
1.93707
2.09091
1.20511
2.13213
1.02502
0.0100604
0.564303
3.7429
0.936793
1.0785
2.73124
1.46328
1.64946
1.35776
0.364785
1.06059
1.83979
1.82893
1.06423
1.01105
1.33489
1.23895
0.967394
1.5306
1.34754
1.30533
0.954997
1.10517
2.06722
1.09601
1.61224
1.20404
0.349551
2.03971
0.00250357
1.72669
1.49479
1.31428
0.873543
1.64301
1.43985
0.628816
1.43091
1.77074
1.6552
1.6552
1.90502
0.755527
1.11519
2.17903
0.453219
0.644042
2.45089
0.00249957
1.31572
1.61939
1.41613
1.79925
1.56306
0.675718
1.7238
2.71498
0.872593
1.83151
1.99067
0.695609
1.01255
1.45019
1.17121
1.12017
1.60172
0.532519
0.363906
3.0672
0.519258
0.984119
1.83703
0.618911
1.70242
2.84364
1.09118
0.966356
1.45994
0.746897
0.976017
2.67065
1.56131
0.833171
1.0908
0.174387
1.11947
1.80161
0.729732
1.74009
2.626
2.08996
1.13262
2.0235
0.764727
1.86141
2.45919
1.16269
0.937459
1.77371
0.308212
1.05045
2.97347
1.39529
0.070812
3.02762
1.50784
0.688683
2.07976
1.01725
0.674308
1.59886
0.896786
0.469619
3.19639
1.01727
1.07103
2.03966
1.15133
1.98568
0.947342
1.56812
1.77766
0.594727
2.08369
1.55748
0.803562
1.83358
0.682514
2.74086
0.89675
2.20781
1.81216
1.28523
1.57267
1.57568
1.19315
1.24913
0.886787
1.23946
1.36604
0.379273
0.590035
1.43814
0.627659
0.00251171
1.15692
3.37062
1.27645
1.08434
2.3711
1.08737
0.00251876
3.37978
0.598401
1.35338
2.80594
0.668173
1.0405
2.09442
1.4354
0.949305
2.07899
0.936607
1.84426
1.71194
1.51654
0.980219
1.17544
0.822401
2.01229
1.76878
1.00241
0.964804
2.55368
0.752332
1.64914
1.42167
0.701373
1.62293
1.15065
0.938808
0.59392
0.596651
0.768355
0.872356
3.20846
2.33244
2.26234
0.793745
1.54661
0.334079
1.33382
0.518708
1.31781
2.53824
1.10037
0.939498
1.70523
0.6133
1.00187
1.51066
0.858934
1.94979
2.34824
1.79718
1.53615
1.34078
2.08743
1.378
0.361222
1.87392
0.804668
2.48874
0.679404
1.6593
2.37967
1.70933
0.00251272
1.20117
0.625969
0.531386
1.82571
0.976894
0.806637
1.44358
1.1099
1.01557
1.7902
1.70279
0.340498
2.13924
1.41542
1.17743
1.36115
0.377041
0.147536
1.27638
1.00768
0.632583
2.85589
1.37104
1.52298
0.93067
0.318502
1.18223
2.12405
0.701098
0.625307
2.44302
1.64437
2.45153
1.53434
1.02394
0.987108
1.6162
0.966936
0.207033
0.855216
1.12716
1.28259
2.54058
1.47893
1.21721
0.33067
2.029
1.26476
0.904205
1.39891
0.417517
1.66677
0.934239
2.02323
2.15587
0.961849
1.59633
1.59089
0.973118
1.10781
1.99571
0.991244
1.60979
0.463457
0.772711
1.58025
0.343298
0.647969
0.507969
2.68756
1.89646
1.25977
1.24655
0.45641
1.53942
0.746145
1.68803
1.36994
1.66274
1.55149
1.33404
1.90566
0.415186
1.0044
1.77985
1.07661
0.945092
2.54811
0.315709
1.43133
2.13061
1.3085
0.758915
1.18282
1.47949
0.796877
1.1092
1.8864
0.999217
1.1188
0.60833
1.30014
2.46615
1.14055
2.01591
1.97762
0.788378
1.1517
1.38768
0.687864
0.819822
3.18213
0.0594428
1.37822
2.28088
0.904717
1.58047
0.329506
1.06249
1.20721
2.00602
1.73669
0.799184
1.71978
2.12434
1.23041
1.92178
1.98544
1.48962
0.916742
1.32681
1.38505
1.26031
0.120439
1.77766
1.23233
0.684229
1.08762
2.60712
0.379646
0.350712
3.74623
0.91146
0.15414
1.03258
0.63017
1.47475
1.56283
1.36051
0.869399
0.893689
1.01952
1.2734
0.91954
1.32655
0.538251
2.0932
1.29322
0.869492
0.840202
1.14498
0.629208
1.05891
0.998615
1.7188
1.86408
1.01023
0.788634
1.38795
1.30772
1.10993
2.03672
1.709
0.761338
0.771155
0.00204328
1.88498
1.51121
1.49264
1.09233
1.40931
0.662084
0.81072
1.66433
1.40628
1.55739
1.22889
1.97271
1.05063
2.248
0.364255
1.19226
1.64977
2.32294
1.43408
1.83164
1.60949
1.00829
1.43558
1.49156
0.842976
2.0252
1.35712
1.4135
1.71774
1.38886
0.543801
1.68366
0.138376
1.56534
1.43267
1.38137
1.19944
1.65234
0.875887
1.52843
1.29304
1.08867
0.00250293
3.29164
0.835947
1.43314
1.67066
0.631064
1.14114
0.995841
1.13863
1.64957
0.815515
0.323899
1.00503
2.77742
1.05618
1.10932
1.0364
1.02468
0.83704
0.810988
1.31211
0.457988
1.18293
1.12312
1.98125
1.59659
1.58078
1.81886
1.00468
1.05194
0.653982
1.42629
1.96673
1.00577
2.15047
1.31027
0.553357
1.40805
0.450966
1.15364
1.90144
0.945657
0.751403
1.3891
1.52625
0.33943
1.41234
0.527959
0.938478
1.81416
1.0869
0.587459
2.75826
0.499267
0.334604
1.79578
0.87436
1.67933
1.8016
0.570566
1.23617
1.59331
1.96747
1.41274
1.02522
0.484584
1.19682
2.22662
1.54881
1.65299
0.625874
2.02156
1.16866
2.12819
0.872983
0.964931
1.23286
1.04842
1.51285
0.867056
0.909925
0.694712
1.72154
1.24923
0.901535
1.33647
1.34938
1.27066
0.457774
1.52873
0.445701
0.912571
0.563388
1.31669
1.73787
1.25167
0.462675
1.37568
1.80925
1.5062
0.768401
1.58827
1.37329
0.887922
1.63096
1.38789
1.43622
0.894239
0.751905
1.85574
0.901494
1.84885
1.73185
0.797034
0.7404
1.91344
1.0373
1.10534
1.61165
1.31227
0.549946
1.45508
0.180719
1.29766
1.42699
1.29571
1.62609
1.10259
1.45509
1.00218
1.53324
1.60436
0.570434
2.00777
0.818266
1.10936
2.32988
0.980015
0.979541
2.02508

SCALARS edge_force float
LOOKUP_TABLE default
0.5
0.5
0.5
0.5
0.5
0.5
0.5
0.5
0.5
0.5
0.5
0.5
0.5
0.5
0.5
0.5
0.5
0.5
0.5
0.5
0.5
0.5
0.5
0.5
0.5
0.5
0.5
0.5
0.5
0.5
0.5
0.5
0.5
0.5
0.5
0.5
0.5
0.5
0.5
0.5
0.5
0.5
0.5
0.5
0.5
0.5
0.5
0.5
0.5
0.5
0.5
0.5
0.5
0.5
0.5
0.5
0.5
0.5
0.5
0.5
0.5
0.5
0.5
0.5
0.5
0.5
0.5
0.5
0.5
0.5
0.5
0.5
0.5
0.5
0.5
0.5
0.5
0.5
0.5
0.5
0.5
0.5
0.5
0.5
0.5
0.5
0.5
0.5
0.5
0.5
0.5
0.5
0.5
0.5
0.5
0.5
0.5
0.5
0.5
0.5
0.5
0.5
0.5
0.5
0.5
0.5
0.5
0.5
0.5
0.5
0.5
0.5
0.5
0.5
0.5
0.5
0.5
0.5
0.5
0.5
0.5
0.5
0.5
0.5
0.5
0.5
0.5
0.5
0.5
0.5
0.5
0.5
0.5
2
0.5
2
0.5
2
0.5
0.5
2
0.5
2
0.5
2
0.5
0.5
2
0.5
2
0.5
2
0.5
0.5
2
0.5
2
0.5
2
0.5
0.5
2
0.5
2
0.5
2
0.5
0.5
2
0.5
2
0.5
2
0.5
2
2
2
2
2
2
2
0.5
0.5
2
0.5
0.5
0.5
0.5
0.5
0.5
0.5
0.5
0.5
0.5
0.5
0.5
0.5
0.5
0.5
0.5
0.5
0.5
0.5
0.5
0.5
0.5
0.5
0.5
0.5
0.5
0.5
0.5
0.5
0.5
0.5
0.5
0.5
0.5
0.5
0.5
0.5
0.5
0.5
0.5
0.5
0.5
0.5
0.5
0.5
0.5
0.5
0.5
0.5
0.5
0.5
2
0.5
0.5
2
0.5
0.5
0.5
0.5
0.5
0.5
0.5
0.5
0.5
0.5
0.5
0.5
0.5
0.5
2
0.5
0.5
0.5
0.5
2
0.5
0.5
0.5
0.5
0.5
0.5
0.5
0.5
0.5
2
0.5
2
0.5
0.5
0.5
2
0.5
0.5
0.5
0.5
0.5
2
0.5
2
0.5
0.5
2
0.5
0.5
0.5
0.5
0.5
2
0.5
0.5
0.5
0.5
0.5
0.5
0.5
0.5
0.5
0.5
0.5
0.5
0.5
0.5
2
0.5
0.5
0.5
0.5
0.5
0.5
0.5
0.5
0.5
0.5
0.5
0.5
0.5
0.5
0.5
0.5
0.5
0.5
2
0.5
0.5
2
0.5
2
0.5
0.5
2
0.5
0.5
0.5
0.5
0.5
0.5
0.5
0.5
0.5
0.5
0.5
0.5
0.5
0.5
0.5
0.5
0.5
2
0.5
0.5
0.5
0.5
0.5
0.5
0.5
0.5
0.5
0.5
0.5
2
0.5
0.5
0.5
0.5
0.5
0.5
0.5
0.5
0.5
2
0.5
0.5
0.5
0.5
0.5
0.5
0.5
0.5
2
0.5
0.5
0.5
0.5
0.5
0.5
0.5
2
0.5
0.5
0.5
2
0.5
0.5
0.5
0.5
0.5
0.5
0.5
0.5
0.5
0.5
0.5
0.5
0.5
2
0.5
0.5
0.5
0.5
0.5
0.5
0.5
0.5
2
0.5
0.5
0.5
0.5
0.5
0.5
0.5
0.5
0.5
0.5
0.5
0.5
2
0.5
0.5
0.5
0.5
0.5
0.5
0.5
2
0.5
0.5
0.5
0.5
0.5
0.5
0.5
0.5
0.5
0.5
0.5
0.5
2
0.5
0.5
0.5
0.5
0.5
0.5
0.5
0.5
0.5
0.5
0.5
0.5
0.5
0.5
0.5
0.5
0.5
0.5
0.5
0.5
0.5
0.5
2
0.5
0.5
2
0.5
0.5
0.5
0.5
0.5
2
0.5
0.5
0.5
0.5
0.5
0.5
0.5
0.5
0.5
0.5
0.5
0.5
0.5
0.5
0.5
0.5
0.5
0.5
0.5
0.5
0.5
0.5
0.5
2
0.5
0.5
0.5
0.5
0.5
0.5
0.5
0.5
0.5
0.5
0.5
2
0.5
0.5
2
0.5
0.5
0.5
0.5
0.5
0.5
0.5
0.5
0.5
0.5
0.5
0.5
2
0.5
2
0.5
0.5
0.5
0.5
0.5
0.5
0.5
0.5
0.5
0.5
0.5
0.5
0.5
0.5
0.5
0.5
0.5
0.5
0.5
0.5
0.5
0.5
0.5
0.5
2
0.5
0.5
0.5
0.5
2
0.5
0.5
0.5
0.5
0.5
0.5
0.5
0.5
0.5
0.5
0.5
0.5
0.5
0.5
0.5
0.5
0.5
2
0.5
0.5
0.5
0.5
0.5
2
0.5
0.5
0.5
0.5
0.5
2
0.5
0.5
0.5
0.5
0.5
0.5
0.5
0.5
0.5
0.5
0.5
0.5
0.5
0.5
0.5
0.5
0.5
2
0.5
0.5
0.5
0.5
0.5
0.5
0.5
0.5
0.5
0.5
0.5
2
0.5
0.5
0.5
0.5
0.5
0.5
0.5
0.5
0.5
0.5
0.5
0.5
2
0.5
0.5
0.5
0.5
0.5
0.5
0.5
2
0.5
0.5
0.5
0.5
0.5
0.5
0.5
0.5
0.5
0.5
0.5
0.5
0.5
0.5
0.5
0.5
0.5
2
0.5
0.5
0.5
0.5
0.5
0.5
2
0.5
0.5
0.5
0.5
0.5
0.5
0.5
0.5
0.5
0.5
0.5
0.5
0.5
2
0.5
0.5
0.5
0.5
0.5
0.5
0.5
0.5
0.5
0.5
0.5
0.5
0.5
0.5
0.5
0.5
0.5
0.5
0.5
0.5
0.5
2
0.5
0.5
0.5
0.5
0.5
0.5
0.5
0.5
0.5
0.5
0.5
0.5
0.5
0.5
0.5
0.5
0.5
2
0.5
0.5
0.5
0.5
0.5
0.5
0.5
0.5
0.5
0.5
0.5
0.5
0.5
0.5
0.5
0.5
0.5
0.5
0.5
2
0.5
0.5
2
0.5
0.5
0.5
0.5
0.5
