# vtk DataFile Version 2.0
2D-vertex
ASCII
DATASET UNSTRUCTURED_GRID
POINTS 576 float
0.139257 -2.85521 0
2.59501 -2.74189 0
3.0205 -1.80959 0
2.0375 -0.702217 0
-0.230271 -0.469866 0
-1.00189 -1.93075 0
3.55193 -1.79667 0
4.15889 -0.967232 0
3.29207 0.580728 0
2.22499 0.306964 0
1.0969 1.6005 0
-0.584849 2.14585 0
-1.39465 0.901561 0
-1.56109 0.86637 0
-2.12976 -0.773889 0
-1.64919 -1.67687 0
4.7283 -1.1495 0
5.57907 -0.304897 0
3.81291 1.29871 0
3.52722 1.24087 0
2.69542 2.23155 0
1.61057 2.18818 0
1.1086 5.76537 0
0.183249 5.76794 0
-0.668168 3.95243 0
-1.9351 3.11446 0
-1.91115 1.23062 0
-3.21906 0.977239 0
-3.75699 -0.0317969 0
-3.47579 -0.751678 0
6.65055 -0.339497 0
7.30469 0.358419 0
7.18357 1.67782 0
5.01773 2.92822 0
5.5152 3.48901 0
3.21693 4.88909 0
2.52644 6.15765 0
1.59189 6.35414 0
0.696188 9.39794 0
-0.958781 9.47729 0
-0.669956 6.60587 0
-2.26303 5.73334 0
-3.32085 4.26255 0
-4.30615 4.32145 0
-5.06098 2.95785 0
-6.48432 2.68092 0
-6.79202 1.62832 0
-5.30316 0.240958 0
7.63836 2.28721 0
7.34311 3.33611 0
6.61815 3.78123 0
5.99284 5.84857 0
3.67414 7.11231 0
3.63262 7.91231 0
2.2002 9.48821 0
2.75963 10.1866 0
-1.97122 10.7908 0
-1.91352 10.0229 0
-3.13122 8.79508 0
-2.83721 6.71963 0
-4.52138 7.09206 0
-5.90113 5.82939 0
-7.85089 4.40393 0
-7.71514 3.86424 0
8.29402 3.71103 0
8.29412 3.71353 0
6.93196 5.79275 0
7.41206 6.9822 0
6.23978 8.26844 0
6.48276 8.93758 0
5.81805 9.92564 0
5.641 10.3037 0
-2.7588 13.0505 0
-2.96022 12.8317 0
-6.30554 10.2738 0
-5.61903 9.41816 0
-6.33152 8.14041 0
-6.23384 7.9388 0
-8.83581 4.93306 0
-8.68664 4.57131 0
9.84453 3.94707 0
10.2099 4.89102 0
9.46713 5.91663 0
10.6566 6.28235 0
10.4518 7.82021 0
10.6923 8.54946 0
10.1449 13.3208 0
11.1032 15.593 0
-9.96851 15.69 0
-9.93347 15.5441 0
-10.2874 9.57253 0
-9.9757 9.01566 0
-10.3099 8.40132 0
-9.55894 7.28055 0
-10.3492 6.03766 0
-9.89276 5.04926 0
3.45639 -4.62676 0
4.67437 -4.11511 0
5.51964 -3.73654 0
7.91967 -2.21718 0
9.25882 -0.82352 0
10.6703 1.46022 0
10.7653 1.61878 0
11.5095 2.66363 0
12.3766 4.56005 0
12.6205 5.33399 0
12.9682 8.85631 0
13.5775 16.0276 0
-13.2788 16.2506 0
-12.8332 9.53662 0
-12.7452 8.23993 0
-12.3645 5.68949 0
-11.4957 3.74726 0
-10.6428 2.64554 0
-10.0432 1.9197 0
-9.14949 0.591848 0
-7.24659 -1.56189 0
-5.19898 -2.98783 0
-3.1246 -4.01561 0
-0.14582 -4.89671 0
12.8811 10.552 0
9.01828 10.6729 0
-13.1016 12.1755 0
-10.3452 12.8663 0
-0.434932 3.62502 0
0.897105 3.6935 0
-1.94045 5.68426 0
-1.25306 3.95813 0
4.51359 5.04975 0
4.94536 5.96117 0
0.392589 10.8975 0
0.170175 9.91217 0
-1.19615 7.91191 0
-2.4428 7.63882 0
5.99204 5.85093 0
5.25475 7.8087 0
4.28906 8.33464 0
4.31371 9.58223 0
2.3347 11.0865 0
2.33258 11.0851 0
-2.61121 11.1148 0
-4.14563 9.56568 0
-3.70143 8.83272 0
-4.63604 7.67135 0
1.19566 0.966787 0
-0.28352 0.00559314 0
6.36595 1.94868 0
5.22496 0.436035 0
5.01574 2.92972 0
3.01121 3.78787 0
-9.19137 11.1471 0
-6.11379 10.9125 0
3.00871 3.78789 0
1.5706 4.50416 0
-9.54797 7.21924 0
-8.1273 6.59254 0
-1.03415 -1.94623 0
-1.51183 -4.62397 0
7.25804 33.4811 0
8.48325 35.1483 0
0.9596 -2.53315 0
1.10709 -1.08391 0
2.57919 8.33346 0
1.37088 7.30608 0
8.82754 10.1816 0
5.81883 9.92803 0
9.61731 21.4175 0
0.276135 12.6409 0
-2.92347 -1.01896 0
-3.68508 -3.76566 0
-4.50646 2.02392 0
-5.4156 0.864878 0
-5.83326 -2.6003 0
-4.72117 -0.163729 0
0.401978 7.82163 0
-0.569401 7.38972 0
9.42718 5.7635 0
7.79037 5.03079 0
5.37689 -0.83028 0
7.03254 -2.87917 0
1.40337 -5.00575 0
1.49268 -2.97978 0
-6.36761 1.00131 0
-7.98854 -0.860468 0
-5.52322 4.72866 0
-6.85054 3.52315 0
7.45723 1.80249 0
9.86001 0.0352692 0
-12.6138 7.06604 0
-9.57061 7.26126 0
13.0043 7.36335 0
10.9107 7.29119 0
-2.91761 3.32282 0
-3.84524 1.99968 0
-9.62611 1.34629 0
-6.8452 2.96022 0
-3.69093 6.545 0
-4.47105 4.62702 0
-6.96974 6.76079 0
-6.55036 5.9346 0
8.42644 7.11959 0
8.6705 7.63076 0
-0.829741 12.5178 0
-0.692615 11.6367 0
12.8852 10.5612 0
10.391 11.8752 0
10.3093 14.3016 0
2.14204 11.4614 0
8.13619 8.84289 0
9.46474 9.58759 0
-7.50463 8.26461 0
-7.84882 9.0547 0
-2.3208 14.7341 0
0.96578 13.8499 0
-10.2484 13.411 0
-4.28645 12.7606 0
9.46373 9.5899 0
12.8866 9.96176 0
-10.9773 14.7121 0
-13.3796 15.211 0
-12.8833 10.5735 0
-9.43563 10.7484 0
13.0296 18.8293 0
10.5421 17.2989 0
8.69347 11.1228 0
6.58742 11.2958 0
-9.43555 10.7459 0
-7.52898 9.97383 0
2.59367 14.375 0
4.39814 12.8608 0
-4.64027 11.316 0
-3.81763 10.5444 0
5.18541 12.6368 0
4.25227 11.1388 0
13.2703 12.3059 0
10.6273 12.4729 0
-2.9618 14.3593 0
-4.8155 13.7294 0
-8.91218 29.984 0
0.128355 15.2969 0
-6.75254 11.5416 0
-4.72117 13.0784 0
-12.9562 11.3122 0
-9.68305 11.8201 0
6.58768 16.5787 0
8.58043 15.0354 0
-0.985262 14.1122 0
-0.616959 12.7358 0
-10.6198 19.1415 0
-13.3733 18.9103 0
5.22304 34.5066 0
2.53322 15.3339 0
-3.18853 16.7646 0
-10.4449 19.5617 0
-10.9608 13.9247 0
-13.3085 13.2879 0
-6.89174 15.2739 0
-6.39123 14.0655 0
-6.62573 12.1664 0
-7.51587 13.1989 0
13.5283 14.1753 0
11.0537 14.8512 0
-10.9261 21.0738 0
-13.3072 22.0381 0
6.35994 12.3296 0
5.18705 12.6349 0
10.4798 16.2263 0
8.63445 15.7605 0
4.22277 13.8545 0
7.04798 16.1743 0
-2.10811 15.8968 0
-0.397968 16.2043 0
13.4405 23.8576 0
11.0371 23.7295 0
0.463915 15.2319 0
1.52961 16.0024 0
10.8806 25.8861 0
4.35406 15.9855 0
13.3871 13.2351 0
10.461 13.7265 0
-8.70428 14.9262 0
-8.7977 14.0333 0
-9.58199 12.1242 0
-7.53539 12.8427 0
-10.2416 18.593 0
-6.53879 16.8347 0
3.55862 35.7061 0
3.66914 37.5002 0
1.95379 13.7186 0
2.70361 12.2521 0
-4.0727 15.9771 0
-4.09006 15.0469 0
-13.3062 17.8364 0
-10.5506 17.9892 0
0.0457021 17.5214 0
-0.186713 17.3876 0
8.07552 13.3714 0
7.66192 14.196 0
8.9605 11.695 0
7.91405 13.0223 0
-11.1013 20.3193 0
-13.4434 20.0925 0
-2.63726 16.7045 0
-1.65163 17.9676 0
1.79124 16.957 0
3.74295 16.9907 0
6.65066 14.3138 0
6.43271 14.749 0
-7.73621 18.3999 0
-7.51236 18.6916 0
-9.50295 16.2357 0
-6.77522 16.2095 0
4.31333 15.8911 0
4.99925 14.7992 0
-10.1368 22.9206 0
-3.88895 18.172 0
13.4011 25.3777 0
11.4888 25.1721 0
-11.4162 30.7459 0
-9.90321 29.6236 0
9.08788 17.711 0
8.05912 16.3851 0
12.914 20.3243 0
9.99096 20.5988 0
4.60201 18.2387 0
6.50296 19.1779 0
1.59572 19.2099 0
3.92735 18.6421 0
-0.431949 25.234 0
-2.83866 24.0208 0
-2.75501 22.2356 0
-4.45093 20.0119 0
-6.53436 15.817 0
-4.28064 14.9613 0
-9.59863 21.4229 0
-8.33509 19.9259 0
7.18337 24.2299 0
7.68409 21.1777 0
-13.2613 16.8228 0
-9.86968 16.9135 0
-9.85013 16.9513 0
-7.60896 17.6519 0
0.0535817 19.3978 0
0.292263 19.0986 0
7.60232 32.7424 0
2.35462 22.3412 0
10.9431 32.9258 0
9.73738 31.8277 0
-13.3373 25.0932 0
-11.1459 24.5792 0
-5.61885 17.0787 0
-5.33956 18.0149 0
8.67683 18.316 0
7.47015 18.0999 0
1.69012 17.1083 0
2.24137 18.1753 0
10.7575 16.8032 0
13.4602 17.0592 0
12.8779 19.3518 0
9.0811 17.9944 0
-10.3917 25.2072 0
-4.409 20.1756 0
-1.99945 18.8547 0
-3.52627 18.8832 0
3.79867 22.8845 0
4.54654 22.3133 0
-5.96276 18.7605 0
-5.68226 19.6703 0
4.62639 17.9222 0
6.60065 17.0758 0
-1.5523 21.9202 0
0.00361344 23.2302 0
1.91352 28.8999 0
6.73881 31.3529 0
-4.68633 34.6632 0
-5.38063 35.8114 0
-0.15652 35.3067 0
-1.7776 24.9612 0
-13.3971 23.1301 0
-11.1277 23.6374 0
-1.63722 19.3641 0
-3.37399 20.6194 0
-7.17634 21.7422 0
-5.63391 21.5934 0
9.47273 29.5202 0
7.39503 30.3367 0
5.44598 20.9362 0
7.05515 21.6627 0
10.9278 23.8671 0
8.41955 23.4693 0
13.196 22.0087 0
10.8675 22.9017 0
-10.0665 28.4624 0
-3.39824 21.7978 0
12.1108 30.8528 0
10.3579 30.4478 0
2.69483 20.3462 0
3.99103 19.629 0
-12.9467 27.4247 0
-10.8766 27.2023 0
-0.894688 26.8274 0
3.97203 24.0146 0
0.530083 20.6116 0
2.15392 21.0848 0
-8.30447 20.0207 0
-6.91289 20.5869 0
9.20762 19.5117 0
7.58518 20.0002 0
-1.17543 21.0965 0
-1.9422 20.103 0
12.8679 19.4521 0
9.20918 19.5097 0
-1.95684 24.3714 0
-0.858642 23.1038 0
-5.40056 22.1249 0
-4.36703 22.4163 0
-3.60975 24.4425 0
-4.33088 23.946 0
-13.3074 22.0482 0
-10.1907 22.6093 0
5.13737 24.4601 0
6.06622 23.7365 0
0.390013 30.0267 0
1.42146 35.35 0
-7.67513 22.9125 0
-7.02202 23.8148 0
0.440572 35.7717 0
0.240996 37.5381 0
-6.00774 29.2621 0
-4.59243 29.8557 0
9.85549 22.254 0
8.44284 22.8897 0
13.2262 26.8926 0
11.1129 26.5588 0
5.97716 22.9434 0
7.10068 22.1496 0
2.68948 20.7187 0
4.47631 21.6198 0
3.26639 24.5951 0
3.73428 28.1431 0
5.3908 20.3212 0
6.546 19.4849 0
1.84064 22.7978 0
2.14056 24.1973 0
13.0225 21.1641 0
9.95288 21.8084 0
-2.45664 32.7644 0
-1.84707 30.7087 0
-7.97897 31.2698 0
-8.99574 33.2845 0
0.118606 21.127 0
0.641658 22.4919 0
-6.41082 23.7708 0
-5.77577 24.5056 0
-9.44395 21.8642 0
-7.17667 21.7397 0
6.72795 26.6902 0
8.72686 25.7041 0
-12.2637 29.3733 0
-10.5247 28.2875 0
-5.91923 25.2051 0
-5.04311 26.0185 0
2.7947 32.0499 0
5.67867 31.3553 0
-6.41281 31.8366 0
-5.67534 29.7905 0
6.34925 27.3843 0
4.66704 27.4085 0
2.83305 27.8604 0
1.78352 26.2761 0
-3.85117 25.7331 0
-3.30103 26.3882 0
4.94015 35.2896 0
5.83838 36.8289 0
0.376133 24.3751 0
1.55072 24.7168 0
-8.10036 25.2031 0
-7.97302 25.827 0
2.5962 33.3165 0
1.61621 33.7101 0
-2.66012 26.3236 0
-2.22245 26.9112 0
8.83059 31.9122 0
8.14682 30.4443 0
-2.91517 35.3023 0
-3.44292 36.73 0
-3.47237 34.6151 0
-2.91965 32.8851 0
9.24741 25.3257 0
9.29887 24.0869 0
-7.57598 28.4565 0
-7.33149 26.0475 0
9.54145 29.1124 0
8.67775 27.1622 0
-0.44217 33.2824 0
0.532985 31.0205 0
-9.1816 23.413 0
-9.22286 24.7044 0
9.67787 34.1927 0
8.45912 32.6733 0
12.9919 28.2148 0
10.7887 27.9256 0
6.45154 33.5708 0
5.32293 32.1056 0
-0.821396 29.6765 0
-0.284386 28.0785 0
-5.76851 33.2744 0
-7.02542 34.6707 0
3.48035 25.8847 0
2.58237 26.6119 0
5.03856 29.9817 0
5.31975 27.75 0
5.34382 25.6133 0
4.53167 26.2922 0
-3.68059 28.7541 0
-3.01005 28.9194 0
7.30223 25.1407 0
6.44783 25.9353 0
4.10695 29.7643 0
3.88947 31.5827 0
-7.62256 31.1703 0
-6.9616 29.335 0
6.11641 34.3674 0
7.2576 36.0046 0
-5.2586 27.848 0
-4.07315 27.8569 0
-5.12352 33.4803 0
-3.62515 32.3623 0
1.78913 31.1736 0
1.1828 31.4084 0
-10.4787 31.9432 0
-8.83848 30.6435 0
-7.83528 34.0785 0
-6.84225 31.9682 0
0.0619544 33.6476 0
0.993655 33.2421 0
1.4228 28.8474 0
0.994889 28.0726 0
4.32038 33.5326 0
4.66371 32.2406 0
-1.87118 35.0636 0
-1.54006 33.7058 0
-5.57819 27.3359 0
-6.92161 27.3162 0
-3.68978 31.34 0
-2.66065 30.4761 0
-0.206771 25.9711 0
1.32088 26.5817 0
-1.55919 37.2664 0
-1.2148 35.6845 0
7.47395 28.7684 0
8.68961 28.4244 0
10.4952 27.3342 0
8.9245 26.9596 0
-10.2768 26.2869 0
-8.80402 26.5512 0
3.03945 35.3198 0
3.25982 33.8662 0
-7.79312 28.4753 0
-8.71166 27.5964 0
-1.64942 31.3583 0
-0.46262 31.7215 0
-2.42907 28.4446 0
-1.01626 28.9595 0
-13.1582 26.215 0
-10.5842 25.822 0
7.0408 29.6189 0
5.5493 29.4116 0
2.01577 35.7767 0
1.94712 37.6142 0
12.4135 30.0615 0
10.4185 28.839 0
-5.86082 32.2399 0
-4.24251 31.1224 0
3.77733 30.0843 0
2.35271 29.8421 0
CELLS 289 1932
5 0 160 161 4 5
6 2 6 7 8 9 3
6 9 144 145 4 161 3
8 145 12 13 14 15 156 5 4
8 7 16 178 17 147 18 19 8
7 9 8 19 20 21 10 144
6 22 23 24 124 125 153
8 25 26 13 12 11 124 24 127
7 13 26 27 28 29 168 14
6 30 31 32 146 147 17
7 18 33 148 149 152 20 19
5 20 152 153 125 21
7 22 37 163 174 175 40 23
5 24 23 40 126 127
5 26 25 192 193 27
7 28 27 193 170 171 47 173
9 148 33 146 32 186 48 49 50 34
5 36 35 128 129 52
6 36 52 53 162 163 37
6 38 54 55 139 130 131
7 40 175 132 133 59 41 126
6 42 41 59 196 197 43
7 44 43 197 184 185 195 45
8 49 64 65 177 66 134 51 50
7 51 134 135 136 53 52 129
6 53 136 137 55 54 162
8 55 137 70 165 71 233 138 139
7 57 56 140 231 141 142 58
7 59 133 58 142 143 60 196
6 61 60 143 77 198 199
5 65 80 81 176 177
6 67 200 201 208 69 68
7 69 208 209 216 164 165 70
5 71 225 264 265 233
8 73 72 236 291 333 237 241 215
5 91 92 93 210 211
8 77 76 210 93 189 154 155 198
5 6 2 1 96 97
5 16 7 6 97 98
5 30 17 178 179 99
4 101 48 186 187
5 64 49 48 101 102
5 80 65 64 102 103
6 176 81 104 105 83 82
4 105 190 191 83
5 120 121 164 216 217
5 123 214 254 255 122
5 92 91 90 109 110
5 92 110 188 189 93
5 79 78 95 112 113
5 63 62 79 113 114
5 194 195 185 63 114
4 173 47 116 172
5 15 14 168 169 118
5 0 5 156 157 119
5 181 160 0 119 180
4 30 99 100 31
4 80 103 104 81
5 292 293 284 248 249
4 94 111 112 95
5 171 182 183 116 47
6 120 204 205 298 224 121
5 122 242 243 282 123
5 124 11 10 21 125
6 126 41 42 192 25 127
5 128 34 50 51 129
6 130 203 56 57 39 131
5 132 39 57 58 133
5 134 66 67 68 135
6 136 135 68 69 70 137
8 138 207 167 247 202 203 130 139
5 140 73 215 230 231
6 142 141 75 76 77 143
5 144 10 11 12 145
4 146 33 18 147
5 148 34 128 35 149
7 150 221 226 227 74 151 240
7 152 149 35 36 37 22 153
5 154 94 95 78 155
4 156 15 118 157
4 357 222 223 356
6 160 181 1 2 3 161
5 162 54 38 174 163
6 164 121 224 225 71 165
7 166 445 430 431 435 387 337
4 168 29 117 169
6 170 44 45 46 182 171
5 172 117 29 28 173
6 174 38 131 39 132 175
6 176 82 200 67 66 177
4 178 16 98 179
4 180 96 1 181
4 182 46 115 183
6 184 61 199 62 63 185
5 186 32 31 100 187
5 188 111 94 154 189
5 190 106 85 84 191
6 192 42 43 44 170 193
5 194 115 46 45 195
5 196 60 61 184 197
6 198 155 78 79 62 199
6 200 82 83 191 84 201
6 202 72 73 140 56 203
4 204 234 235 205
6 206 261 87 266 267 245
5 208 201 84 85 209
6 210 76 75 74 227 211
6 213 274 239 246 247 167
6 214 123 282 283 259 281
5 216 209 85 106 217
5 218 89 88 108 219
5 220 109 90 226 221
5 222 358 359 320 223
5 224 298 299 264 225
5 226 90 91 211 227
5 228 288 289 229 268
6 230 151 74 75 141 231
7 232 229 289 207 138 233 265
5 234 278 279 86 235
7 236 212 270 302 252 290 291
6 253 248 284 308 309 335
6 240 151 230 215 241 258
5 242 220 221 150 243
6 244 277 312 313 307 269
6 246 212 236 72 202 247
5 248 253 300 301 249
8 275 304 354 294 295 271 239 274
6 252 302 303 362 363 315
4 254 218 219 255
5 256 280 281 259 257
6 258 241 237 257 259 283
4 260 107 87 261
4 531 448 449 530
7 264 299 296 297 306 232 265
6 223 320 321 267 266 356
6 268 229 232 306 307 313
5 270 212 246 239 271
5 272 316 317 388 273
6 274 213 288 228 251 275
6 276 433 552 553 457 488
5 278 260 261 206 279
6 280 89 218 254 214 281
6 282 243 150 240 258 283
5 284 293 340 341 308
4 286 472 473 287
5 288 213 167 207 289
7 350 285 311 332 333 291 290
5 292 338 339 340 293
6 328 377 412 413 371 474
6 296 86 279 206 245 297
6 298 205 235 86 296 299
4 300 262 263 301
5 302 270 271 295 303
6 304 275 251 312 277 305
7 306 297 245 267 321 269 307
7 308 341 285 350 351 366 309
7 310 88 89 280 256 332 311
5 312 251 228 268 313
7 314 419 454 455 382 424 496
5 316 432 433 276 317
5 318 458 459 392 319
8 320 359 352 353 369 244 269 321
5 322 444 445 166 323
5 324 368 369 353 325
5 326 343 294 354 355
6 534 535 479 423 426 376
6 330 329 416 417 415 393
5 332 256 257 237 333
6 334 262 300 253 335 404
6 336 421 434 435 431 389
5 338 108 88 310 339
6 340 339 310 311 285 341
7 295 294 343 342 380 362 303
6 344 158 502 503 463 373
5 346 498 499 482 347
4 348 378 379 349
5 350 290 252 315 351
7 352 411 406 407 441 325 353
7 354 304 305 368 324 327 355
5 356 266 87 107 357
5 358 410 411 352 359
6 360 349 379 314 496 497
7 362 380 409 381 361 331 363
6 364 345 403 436 437 365
6 366 351 315 363 331 367
5 368 305 277 244 369
6 450 451 371 413 370 408
6 438 508 509 469 475 443
5 374 486 484 485 375
6 534 376 549 540 541 494
5 378 418 419 314 379
6 380 342 402 450 408 409
7 382 455 405 367 331 361 383
5 384 395 347 482 483
6 386 440 441 407 337 387
5 388 317 276 488 489
4 390 272 273 391
6 392 459 399 554 555 559
4 394 346 347 395
5 396 326 355 327 397
5 398 564 565 554 399
5 400 546 547 537 505
7 402 342 343 326 396 436 403
6 404 335 309 366 367 405
5 406 323 166 337 407
6 408 370 330 393 381 409
5 410 322 323 406 411
5 412 329 330 370 413
6 414 383 361 381 393 415
5 461 542 543 491 460
6 418 263 262 334 454 419
6 420 401 364 365 434 421
7 372 575 528 529 495 422 536
6 424 382 383 414 452 425
5 426 423 568 569 427
6 428 524 525 514 429 465
7 430 391 273 388 489 389 431
5 432 500 501 552 433
6 434 365 437 386 387 435
6 436 396 397 440 386 437
6 438 401 420 512 513 508
6 440 397 327 324 325 441
6 442 345 364 401 438 443
5 444 390 391 430 445
7 446 487 527 544 545 447 560
6 533 464 572 506 507 532
6 450 402 403 345 442 451
5 452 414 415 417 453
5 454 334 404 405 455
6 420 421 336 516 517 512
4 458 398 399 459
6 460 453 417 416 470 461
6 468 439 518 574 575 372
6 464 533 520 521 428 465
5 550 566 567 511 466
7 468 372 536 537 547 469 509
7 470 416 329 412 377 480 471
5 472 250 522 523 473
6 474 371 451 442 443 475
7 476 425 452 453 460 491 477
6 557 538 250 472 286 556
6 480 377 328 546 400 481
6 482 499 344 373 385 483
5 426 427 548 549 376
5 486 374 526 527 487
6 488 457 516 336 389 489
7 490 558 559 555 477 491 543
7 492 384 483 385 566 550 551
5 494 541 446 560 561
5 496 424 425 476 497
5 498 159 158 344 499
4 500 570 571 501
6 250 538 539 503 502 522
6 504 447 545 515 562 563
5 506 526 374 375 507
6 508 513 467 439 468 509
6 467 511 567 510 518 439
7 512 517 456 466 511 467 513
7 514 525 471 480 481 562 515
6 516 457 553 493 456 517
7 518 510 463 503 539 519 574
7 520 448 531 238 558 490 521
5 522 502 158 159 523
6 525 524 542 461 470 471
6 526 506 572 573 544 527
6 528 462 478 479 535 529
5 530 318 319 238 531
5 532 449 448 520 533
6 534 494 561 495 529 535
6 536 422 504 563 505 537
6 538 557 478 462 519 539
6 540 484 486 487 446 541
6 542 524 428 521 490 543
6 544 573 429 514 515 545
6 546 328 474 475 469 547
5 548 485 484 540 549
5 550 466 456 493 551
7 552 501 571 492 551 493 553
7 554 565 360 497 476 477 555
6 478 557 556 568 423 479
5 558 238 319 392 559
6 560 447 504 422 495 561
5 562 481 400 505 563
5 564 348 349 360 565
6 566 385 373 463 510 567
5 568 556 286 287 569
6 570 394 395 384 492 571
5 572 464 465 429 573
5 574 519 462 528 575
CELL_TYPES 289
7
7
7
7
7
7
7
7
7
7
7
7
7
7
7
7
7
7
7
7
7
7
7
7
7
7
7
7
7
7
7
7
7
7
7
7
7
7
7
7
7
7
7
7
7
7
7
7
7
7
7
7
7
7
7
7
7
7
7
7
7
7
7
7
7
7
7
7
7
7
7
7
7
7
7
7
7
7
7
7
7
7
7
7
7
7
7
7
7
7
7
7
7
7
7
7
7
7
7
7
7
7
7
7
7
7
7
7
7
7
7
7
7
7
7
7
7
7
7
7
7
7
7
7
7
7
7
7
7
7
7
7
7
7
7
7
7
7
7
7
7
7
7
7
7
7
7
7
7
7
7
7
7
7
7
7
7
7
7
7
7
7
7
7
7
7
7
7
7
7
7
7
7
7
7
7
7
7
7
7
7
7
7
7
7
7
7
7
7
7
7
7
7
7
7
7
7
7
7
7
7
7
7
7
7
7
7
7
7
7
7
7
7
7
7
7
7
7
7
7
7
7
7
7
7
7
7
7
7
7
7
7
7
7
7
7
7
7
7
7
7
7
7
7
7
7
7
7
7
7
7
7
7
7
7
7
7
7
7
7
7
7
7
7
7
7
7
7
7
7
7
7
7
7
7
7
7
7
7
7
7
7
7
7
7
7
7
7
7
CELL_DATA 289
SCALARS cell_division_count float
LOOKUP_TABLE default
1
0
1
0
0
0
1
0
0
1
1
1
1
1
1
1
0
1
1
1
1
1
1
0
1
1
1
1
1
1
1
1
2
4
3
1
1
0
0
1
1
0
0
0
1
2
3
0
1
0
0
1
1
1
1
1
0
0
3
0
1
2
3
1
1
1
1
1
1
1
2
2
1
1
1
1
2
1
1
1
3
1
1
2
9
1
1
1
1
1
1
1
1
1
1
1
1
1
1
1
1
1
2
3
5
2
1
3
5
2
2
2
5
3
2
4
2
3
5
5
6
3
3
6
3
4
6
9
3
5
4
4
8
5
6
6
5
4
5
14
5
5
5
7
5
4
6
4
10
5
3
4
6
6
6
7
6
6
11
7
8
7
6
7
8
12
11
6
8
9
4
7
8
11
6
7
7
8
8
3
6
12
10
11
9
7
11
13
8
12
8
11
10
11
9
9
5
14
6
10
8
13
10
10
8
11
6
10
11
14
8
11
11
11
8
11
9
8
9
11
13
9
11
6
13
9
11
12
11
13
8
12
12
11
14
14
10
6
12
13
11
11
11
9
12
9
14
14
12
12
6
9
12
14
8
13
13
13
12
13
11
11
6
11
13
11
8
9
12
14
12
12
14
13
13
9
14
14
14
11
14
12
14
8
14
8
9
13
12
SCALARS cell_time float
LOOKUP_TABLE default
1671
2.22229e+13
1691
4.48239e+13
2.67348e+11
1.25633e+10
1701
2.68224e+09
9.19769e+11
1691
1691
1681
1651
1701
1621
1661
1.22768e+06
1701
1671
1701
1701
1601
1641
25483.4
1701
1701
1701
1701
1701
1591
1651
1591
1551
1291
1441
1541
1681
1.00108e+18
2.94533e+15
1651
1641
106783
3045.76
1757.34
1631
1531
1331
1748.01
1641
4399.01
2016.18
1621
1661
1671
1681
1651
1.12104e+13
22866.3
1121
3737.96
1651
1571
1391
1701
1701
1701
1701
1701
1701
1701
1581
1461
1701
1691
1691
1691
1521
1681
1681
1681
821
1671
1671
1531
451
1671
1661
1661
1651
1651
1651
1651
1651
1641
1641
1641
1631
1621
1621
1601
1591
1591
1581
1451
1271
1551
1541
1391
1171
1531
1531
1531
821
1111
1521
1141
1461
1451
1181
1141
1031
1411
1391
1021
1391
1111
1121
811
1331
1181
1311
1311
91
1121
1011
1041
1241
1021
1211
41
1181
1181
1171
871
301
1141
911
891
541
1121
1111
1111
1111
1101
1041
841
1031
1021
381
451
371
831
421
761
831
81
511
911
901
451
891
871
871
221
231
701
841
561
831
821
551
241
691
451
771
761
391
181
261
61
511
561
681
271
451
251
651
41
631
631
31
51
601
571
561
561
551
541
521
61
511
501
111
491
21
141
451
231
451
451
171
451
441
421
61
91
391
391
381
161
371
371
11
151
31
81
311
151
291
281
41
281
271
51
131
251
41
51
41
241
231
21
71
41
191
181
181
171
171
161
161
151
151
141
21
111
91
91
81
81
71
61
61
61
51
51
51
41
41
41
41
41
41
31
31
21
21
21
11
SCALARS cell_area float
LOOKUP_TABLE default
3.24247
3.30063
3.29403
3.35681
3.35189
3.34448
3.32801
3.3763
3.34951
3.28216
3.33774
3.28452
3.38632
3.32047
3.30715
3.33078
3.39981
3.29002
3.34657
3.39483
3.39225
3.34138
3.34061
3.3737
3.36075
3.37709
3.43635
3.40386
3.39239
3.331
3.24823
3.29949
3.34707
3.32897
3.44523
3.25216
3.34762
3.25296
3.26149
3.249
3.23765
3.27899
3.26291
3.28003
3.22168
3.28863
3.26192
3.26526
3.26066
3.24951
3.26909
3.27448
3.2171
3.25761
3.24511
3.24249
3.2101
3.21831
3.27807
3.19769
3.24686
3.30859
3.27409
3.28175
3.33893
3.28752
3.39667
3.35241
3.28299
3.36002
3.44723
3.35219
3.35814
3.28773
3.24867
3.27665
3.34251
3.35221
3.23324
3.22251
3.22857
3.25909
3.33536
3.32828
3.35651
3.22314
3.29768
3.25281
3.37121
3.2893
3.22491
3.20408
3.21679
3.30539
3.25214
3.2465
3.26043
3.32545
3.26404
3.302
3.29154
3.26568
3.39766
3.23848
3.29908
3.24422
3.33016
3.38433
3.29279
3.28042
3.26584
3.27443
3.28278
3.29164
3.24919
3.31118
3.35704
3.40033
3.26276
3.42384
3.2983
3.35196
3.27658
3.33865
3.40091
3.2739
3.43339
3.38554
3.2218
3.2795
3.33363
3.21541
3.24805
3.36931
3.3205
3.34578
3.35815
3.27205
3.36092
3.29613
3.25785
3.28526
3.31703
3.27326
3.23343
3.34554
3.39165
3.2784
3.32646
3.31679
3.30233
3.24572
3.36078
3.34978
3.3823
3.38168
3.34034
3.30075
3.34299
3.28191
3.26483
3.40523
3.29697
3.30989
3.35221
3.2924
3.32579
3.32464
3.29356
3.33731
3.28024
3.32463
3.41428
3.29883
3.27418
3.23964
3.35308
3.3645
3.37144
3.24902
3.29972
3.3016
3.41154
3.35021
3.37792
3.30694
3.34517
3.33875
3.29485
3.2866
3.28889
3.38195
3.38303
3.24493
3.34015
3.26237
3.24575
3.2887
3.22587
3.32204
3.27465
3.2777
3.39119
3.34308
3.2962
3.35837
3.29738
3.30157
3.3563
3.29115
3.31163
3.34134
3.3434
3.32597
3.29641
3.31071
3.33728
3.28522
3.34238
3.34191
3.34114
3.33455
3.34431
3.29048
3.32178
3.3371
3.35945
3.29396
3.28972
3.33291
3.22745
3.32157
3.32667
3.30103
3.27007
3.35577
3.35939
3.28157
3.33949
3.34529
3.27927
3.31864
3.28627
3.30026
3.25634
3.31376
3.34259
3.31992
3.25864
3.29392
3.29056
3.25525
3.29556
3.30638
3.30509
3.33922
3.3173
3.35197
3.34704
3.3074
3.3371
3.32082
3.2928
3.32376
3.28931
3.29641
3.2737
3.29981
3.29318
3.31078
3.29665
3.27998
3.31485
3.30556
3.32234
3.29934
3.27159
3.32977
3.34125
3.28961
3.26124
3.30421
3.27329
3.27745
3.30371
3.28248
3.30618
3.26616
3.28192
SCALARS cell_perimeter float
LOOKUP_TABLE default
6.93037
6.94234
6.96884
7.19421
7.12602
6.82624
7.06348
7.60243
6.93406
6.93078
7.38466
6.99967
6.81108
7.21355
7.03545
6.79315
7.17971
6.96721
6.9467
7.09123
6.91959
7.22918
7.22524
7.5375
7.54423
6.94052
8.16477
7.01184
6.86447
7.05408
6.95581
7.0231
8.26323
7.02617
7.01943
7.31533
7.86326
7.52569
7.83305
7.64247
8.28211
8.67745
8.19336
7.75907
7.38151
9.29373
7.83722
7.62393
8.04296
7.65798
8.12873
8.45013
7.79191
8.08284
7.67868
7.21903
7.43944
7.39157
7.94352
7.32669
7.73615
9.32212
8.41454
7.03487
7.10779
7.21737
6.93577
7.03406
7.14374
6.88026
7.98801
7.02983
7.13559
7.08533
7.24247
7.21166
7.82061
7.23355
6.9368
7.88038
7.99765
6.79107
7.00916
8.00116
7.2844
7.98904
6.82478
7.99075
7.01108
6.99634
7.80143
7.31572
7.66023
7.10907
7.94043
7.96888
7.35293
6.93197
8.23593
7.15618
7.15286
6.93352
7.19279
7.8969
7.0658
7.01465
6.83436
7.15288
7.25158
8.45813
8.34036
8.48878
9.29188
7.19492
7.24556
7.08359
6.93243
7.69535
8.04166
6.88031
7.62629
7.19932
8.80769
7.30287
7.27091
7.75826
7.04331
7.00705
7.59817
7.00047
7.29076
7.67377
7.41262
7.46821
7.12288
7.19845
7.06772
7.44695
6.86537
6.95895
8.00312
6.85263
7.56457
7.55005
7.29347
7.21288
7.52921
8.462
6.9213
7.22419
7.2048
7.64703
7.08294
7.29213
6.91072
6.92452
7.92722
7.04867
7.57829
7.23735
7.21017
7.19047
8.33435
7.3775
7.02054
6.94425
6.99918
7.32289
7.29822
6.95917
8.81076
7.90418
7.09185
7.0023
7.1267
7.48231
7.09058
7.14798
7.47169
7.79406
9.61564
6.7855
7.22777
7.10322
6.9182
7.41652
6.88107
6.8859
7.10795
6.89738
8.11672
7.0034
7.58959
6.94133
6.94492
6.96864
7.61075
6.87912
7.32211
7.02016
7.56556
6.94101
7.28849
7.12298
7.06396
6.88293
8.81083
7.02855
6.98212
6.93867
8.64101
6.87066
6.95757
7.06013
7.12356
6.90431
7.06967
7.35597
7.07702
7.22059
6.82619
7.19305
6.91279
8.15033
6.87109
7.38562
7.00983
7.05584
7.33141
6.80552
7.33776
6.87318
6.93983
7.27177
7.01361
6.98699
6.88009
7.15572
6.85767
7.01553
6.83254
6.92864
6.93082
7.09771
7.03969
6.85985
6.9671
6.90247
6.91406
6.97958
7.22122
7.4825
6.95555
6.89386
7.16032
6.81273
6.98689
6.75801
7.00367
7.10038
6.95341
7.21624
7.23558
6.95139
7.17021
6.94447
7.21537
7.48115
7.0175
6.88142
6.79869
6.96184
6.89077
6.96786
6.94952
7.07407
7.10586
6.8558
6.93769
6.89206
6.98484
6.85799
6.91859
7.61645
6.85702
7.13027
7.60038
7.2242
6.91765
SCALARS cell_frequency_modifier float
LOOKUP_TABLE default
4.38186e+17
5.44573e+14
2.67326e+14
1.49438e+14
4.19171e+13
3.84324e+12
1.42618e+10
3.2786e+11
4.0061e+13
5.76731e+14
3.97304e+11
1.79048e+12
2.15601e+08
5.65343e+09
1.57975e+12
1.21045e+13
2.01985e+11
7.64419e+09
1.32782e+08
1.28815e+06
1.82197e+08
2.80706e+09
5.23561e+10
7.0722e+09
1.57889e+08
7.38188e+06
868619
1.66471e+06
5.21499e+07
2.94832e+08
1.98198e+12
1.15822e+08
3.88191e+06
384533
13386
5.12106e+09
9.01719e+07
6.32563e+18
1.49923e+18
1.67068e+17
7.45715e+14
9.67944e+13
2.96412e+13
5.24049e+11
8.60448e+10
1.61842e+07
9.29672e+06
2.29035e+09
1.5902e+10
4.537e+12
1.581e+13
6.22567e+13
9.10683e+16
1.20298e+18
1.05333e+19
10000
5.27553e+16
6.14588e+12
38602.3
9.05459e+11
1.29872e+16
999003
3.44995e+07
1.36901e+14
1.71806e+10
7.12801e+10
857198
1.13548e+07
4.37609e+09
9.92485e+06
145094
206976
1.40174e+07
5.46782e+13
4.57365e+14
6.00075e+12
832603
4.09186e+09
2.26885e+11
7.02055e+18
93540.9
6.69613e+17
2.4787e+07
1.36776e+06
10.9467
9.32825e+17
4.0376e+12
1.64606e+17
1.20557e+07
6.09012e+09
9.68978e+17
10000
3.55573e+15
1.6763e+10
3.41997e+15
7.49199e+10
9.69411e+09
1.78003e+11
3.20144e+14
3.1306e+09
1.05747e+10
4.27703e+10
114924
4.76555e+07
10054.9
4.53115e+09
9.2354e+06
11163.1
202405
1.37434e+09
676308
3.77124e+08
5258.36
935236
8.22192e+08
52031.1
1.19646e+06
110924
1.07377e+07
1679.87
308.137
152957
1.15223e+08
2737.34
16436.5
15467.2
728.778
208.72
2.46656e+06
2.42394e+06
47801.2
947181
101.117
28803.3
1364.73
16476.8
3114.08
715.42
5085.72
4.86918
3.18021e+06
130991
292196
63967.5
161.699
59441.6
1258.68
112031
4.71657
25299.1
166817
5944.1
607.552
1309.19
2854.29
209.373
2669.89
14076
9.29367
157.898
134.19
336.613
71.4637
439.717
186.531
2.43208
8.55831
9044.82
157.021
6.81597
270855
1141.98
111.823
1.24847
100.319
827.866
464.276
76.1018
257.872
281975
308.345
8.49312
41.9561
12.415
88.9197
1392.64
10.7577
2.27957
2.17751
5.8332
58.0262
29.9507
20.4663
107.747
35.3168
572.226
1411.34
8.141
102.374
140.021
281.946
236.351
34.1065
67.8608
114.591
15.9533
166.684
14.44
14.871
7.22745
23.7127
5.64395
0.508051
11.2387
2.36467
1.16447
6.58353
15.0651
13.1911
33.4071
2.38512
110.776
5.03614
71.0797
0.671772
0.530404
11.6758
21.5341
142.391
3.16287
177.579
3.64724
0.829049
1.15835
156.108
0.761074
1.77032
132.367
5.19189
2.37882
118.042
2.46527
5.72597
1.77937
104.669
4.78084
1.03116
0.914481
100.101
15.5988
2.60573
150.02
1.6424
1.12108
1.049
1.19279
1.08398
1.0478
0.821427
2.64999
0.560309
0.819309
2.26896
1.64043
3.15913
1.47118
110.484
1.12674
1.90759
1.1366
1.40575
108.998
1.26469
1.05945
2.76562
1.79487
197.71
1.04277
1.89545
3.4639
147.773
1.02382
188.98
454.142
1.09025
22.0156
1.08697
106.387
26.7885
SCALARS cell_area_modifier float
LOOKUP_TABLE default
100
1.08443
1.68513
0.367451
0.395079
0.43038
0.587996
0.333526
0.40335
17.5152
0.51015
7.91781
0.31706
0.693878
0.846266
0.559535
0.303731
2.71362
0.414932
0.308596
0.311927
0.461293
0.476505
0.335461
0.349667
0.331612
0.290015
0.299017
0.310252
0.554171
100
1.17241
0.409059
0.576271
0.288567
100
0.406184
100
100
100
100
100
100
100
100
4.04196
100
100
100
100
100
100
100
100
100
100
100
100
100
100
100
0.822191
100
192.667
0.496991
4.69919
0.306957
0.379514
9.1746
0.351795
0.287134
0.38714
0.362837
4.34586
100
100
0.450507
0.384564
100
100
100
100
0.533703
0.582075
0.369802
100
1.30474
100
0.339401
3.34104
100
100
100
0.913112
100
100
100
0.619507
100
0.991424
2.28458
100
0.305335
100
1.22199
100
0.565005
0.320577
2.0424
100
100
100
10.9057
2.19772
100
0.777927
0.36513
0.302143
100
0.292955
1.27594
0.392396
100
0.505687
0.300572
100
0.291478
0.318809
100
100
0.543744
100
100
0.341406
0.685647
0.417932
0.360574
100
0.345487
1.5496
100
6.21505
0.728878
100
100
0.420976
0.313619
100
0.600208
0.738186
0.974705
100
0.347565
0.400554
0.324173
0.32785
0.480466
1.06446
0.443592
44.4615
100
0.297478
1.36643
0.810659
0.382022
2.11722
0.612937
0.626219
1.84665
0.514693
100
0.633078
0.294447
1.24838
100
100
0.377038
0.343434
0.33742
100
1.14911
1.00873
0.295955
0.397798
0.32972
0.858841
0.427199
0.501301
1.63739
5.11504
3.54601
0.326001
0.322365
100
0.484493
100
100
3.77778
100
0.654587
100
100
0.31533
0.440213
1.50914
0.358338
1.33487
1.02664
0.372183
2.3786
0.767596
0.465004
0.436886
0.606506
1.43424
0.799447
0.519317
6.96386
0.454046
0.457641
0.472608
0.538677
0.433608
2.59193
0.662085
0.524025
0.35395
1.73574
2.84729
0.548908
100
0.669757
0.594039
1.04521
100
0.374595
0.356131
100
0.488588
0.424065
100
0.710947
5.61165
1.10516
100
0.757536
0.447022
0.702309
100
1.78947
2.48069
100
1.59229
0.871795
0.927769
0.492754
0.719801
0.389751
0.411974
0.834055
0.52882
0.677608
1.9727
0.640089
3.15847
1.47074
100
1.12671
1.90759
0.78854
1.39952
100
0.747736
0.898911
0.647256
1.19669
100
0.570582
0.468775
2.99482
100
0.942904
100
100
0.958541
13.4419
0.885145
100
25.1304
SCALARS cell_Gaussian_modifier float
LOOKUP_TABLE default
4.38186e+15
5.02176e+14
1.58638e+14
4.06689e+14
1.06098e+14
8.92988e+12
2.42549e+10
9.83012e+11
9.93209e+13