# vtk DataFile Version 2.0
2D-vertex
ASCII
DATASET UNSTRUCTURED_GRID
POINTS 1274 float
0.755205 -4.9178 0
3.20498 -4.6626 0
3.57504 -3.70788 0
2.52973 -2.66051 0
0.256997 -2.55672 0
-0.434419 -4.05628 0
4.10512 -3.66336 0
4.66167 -2.79724 0
3.70037 -1.30336 0
2.65863 -1.63852 0
1.46042 -0.403254 0
-0.23732 0.0421988 0
-0.978257 -1.24561 0
-1.13463 -1.28716 0
-1.62243 -2.9614 0
-1.09781 -3.8357 0
5.23571 -2.94215 0
6.03173 -2.04297 0
4.16602 -0.548428 0
3.89635 -0.621044 0
3.00105 0.319242 0
1.93625 0.211068 0
1.21294 3.82706 0
0.364272 3.78649 0
-0.423789 1.89194 0
-1.61595 0.95802 0
-1.4992 -0.943426 0
-2.78669 -1.25661 0
-3.28043 -2.29494 0
-2.96682 -2.99992 0
7.09984 -2.00753 0
7.70737 -1.26618 0
7.49925 0.0407864 0
5.26009 1.15803 0
5.7161 1.74858 0
3.34186 3.03135 0
2.5489 4.30556 0
1.66463 4.44452 0
0.688779 7.63312 0
-0.889238 7.64717 0
-0.522941 4.58034 0
-2.00261 3.61119 0
-3.02925 2.04449 0
-3.98666 2.06275 0
-4.70091 0.642682 0
-6.10553 0.312492 0
-6.37427 -0.753124 0
-4.83401 -2.08553 0
7.90938 0.683017 0
7.54275 1.71054 0
6.78221 2.11077 0
5.99124 4.15659 0
3.6176 5.2942 0
3.52601 6.17318 0
2.04824 7.77588 0
2.56922 8.49104 0
-1.86851 9.0213 0
-1.75294 8.0849 0
-2.97992 6.7154 0
-2.61731 4.56247 0
-4.24988 4.84287 0
-5.61493 3.50457 0
-7.51014 1.98684 0
-7.35896 1.45214 0
8.44755 2.14671 0
8.44746 2.14921 0
6.90401 4.16025 0
7.30357 5.37732 0
5.99372 6.61593 0
6.18361 7.30896 0
5.34794 8.31244 0
5.04783 8.83929 0
-2.59442 11.3286 0
-2.863 10.9584 0
-5.9903 7.96369 0
-5.31369 7.19106 0
-6.0226 5.79952 0
-5.93763 5.63683 0
-8.50048 2.48606 0
-8.34369 2.13054 0
9.96648 2.50408 0
10.2538 3.47326 0
9.42317 4.4318 0
10.5704 4.89379 0
10.212 6.41227 0
10.375 7.13109 0
9.38442 11.7379 0
10.3034 13.8429 0
-9.53345 12.9529 0
-9.53328 12.9504 0
-9.95427 7.07158 0
-9.6553 6.55269 0
-9.99178 5.91317 0
-9.23636 4.82633 0
-10.0318 3.55774 0
-9.55624 2.57841 0
4.17218 -6.49025 0
5.36228 -5.90399 0
6.18915 -5.46999 0
8.49029 -3.79429 0
9.73293 -2.31175 0
10.9809 0.0748636 0
11.0709 0.254804 0
11.732 1.35989 0
12.4384 3.32185 0
12.6158 4.12244 0
12.6356 7.65666 0
12.8749 14.3855 0
-13.1292 13.3937 0
-12.5393 7.00794 0
-12.4427 5.72347 0
-12.0367 3.17582 0
-11.1329 1.24641 0
-10.2515 0.158684 0
-9.62868 -0.556596 0
-8.68485 -1.87017 0
-6.69678 -3.9608 0
-4.57963 -5.30647 0
-2.44596 -6.24069 0
0.583236 -6.96582 0
12.4286 9.13696 0
8.33109 9.17058 0
-12.8254 9.48849 0
-9.92747 10.3321 0
-0.163371 1.55902 0
1.12775 1.69223 0
-1.7519 3.58595 0
-0.954858 1.87068 0
4.59162 3.26929 0
4.96621 4.20299 0
0.354573 9.24933 0
0.155409 8.11277 0
-1.05977 5.92588 0
-2.23269 5.60528 0
5.9902 4.15885 0
5.08813 6.1123 0
4.09729 6.58394 0
4.06696 7.96304 0
2.00734 9.52928 0
2.00542 9.52767 0
-2.33352 9.22164 0
-3.88678 7.3971 0
-3.43338 6.72033 0
-4.38526 5.42877 0
1.59769 -1.04117 0
0.17708 -2.07968 0
6.66939 0.257732 0
5.62715 -1.31851 0
5.25803 1.15944 0
3.21324 1.9079 0
-8.82898 8.72728 0
-5.81247 8.66664 0
3.21074 1.90789 0
1.76232 2.54266 0
-9.24701 4.76171 0
-7.82942 4.17283 0
-0.465965 -4.07351 0
-0.801512 -6.76581 0
14.8619 29.3134 0
17.7905 28.5672 0
1.55825 -4.54966 0
1.62372 -3.09443 0
2.5209 6.52493 0
1.37589 5.47327 0
8.17318 8.69581 0
5.34803 8.31495 0
8.19343 19.5217 0
-0.178982 11.226 0
-2.39876 -3.24278 0
-3.02926 -6.01414 0
-4.10926 -0.265838 0
-4.97221 -1.46589 0
-5.2397 -4.94189 0
-4.23274 -2.4677 0
0.445137 5.91816 0
-0.451768 5.46622 0
9.39748 4.28479 0
7.83899 3.4367 0
5.86358 -2.58129 0
7.64544 -4.51617 0
2.14173 -6.98825 0
2.1148 -4.96448 0
-5.92419 -1.36735 0
-7.47158 -3.28259 0
-5.19344 2.41293 0
-6.49415 1.14245 0
7.76086 0.18232 0
10.2762 -1.40613 0
-12.3039 4.56452 0
-9.2603 4.78574 0
12.8129 6.17849 0
10.732 5.91434 0
-2.58225 1.11607 0
-3.45996 -0.261457 0
-9.19101 -1.12308 0
-6.46981 0.574592 0
-3.43984 4.35252 0
-4.15787 2.35309 0
-6.67237 4.3762 0
-6.23726 3.58288 0
8.26105 5.5785 0
8.4496 6.0692 0
-0.945239 11.0504 0
-0.679679 9.89217 0
12.4328 9.14613 0
9.72315 10.3408 0
9.51304 12.6166 0
1.66528 10.1244 0
7.79273 7.32372 0
8.9728 8.07 0
-7.1651 5.88258 0
-7.51479 6.63147 0
-2.39327 13.3724 0
0.537352 12.566 0
-9.86389 10.8298 0
-4.05988 10.7737 0
8.97137 8.07207 0
12.4658 8.68286 0
-10.6465 11.9775 0
-13.1897 12.4163 0
-12.5973 7.99512 0
-9.09362 8.27827 0
12.2067 17.1108 0
9.65967 15.303 0
7.98543 9.60982 0
5.85234 9.73176 0
-9.09366 8.27575 0
-7.21147 7.60671 0
1.94011 13.1201 0
3.71505 11.4889 0
-4.33517 9.15997 0
-3.5711 8.52869 0
4.41456 11.2543 0
3.56147 9.66829 0
12.7148 10.8416 0
9.9099 10.8836 0
-3.00421 12.931 0
-4.49045 11.7381 0
-13.6069 24.8773 0
-0.188361 14.2114 0
-6.40138 9.20103 0
-4.3512 10.9685 0
-12.6786 8.71648 0
-9.2818 9.31429 0
5.33777 15.3879 0
7.61078 13.4039 0
-1.34769 12.9609 0
-0.78272 11.2539 0
-10.1747 16.2224 0
-13.4272 15.1777 0
18.1671 34.2001 0
1.83371 14.2509 0
-3.04335 15.6864 0
-10.119 16.6334 0
-10.6042 11.3054 0
-13.0539 10.5255 0
-6.47898 13.0047 0
-5.91288 11.9238 0
-6.27924 9.96744 0
-7.0718 10.886 0
12.8871 12.5541 0
10.2765 13.2007 0
-11.0173 17.6844 0
-14.0457 17.5414 0
5.61087 10.8425 0
4.43014 11.1998 0
9.62732 14.4968 0
7.64712 13.9673 0
3.50751 12.6707 0
6.04054 14.7133 0
-2.22448 14.9214 0
-0.789691 15.2424 0
13.5193 19.1198 0
10.7168 20.357 0
-0.103604 14.1951 0
0.785921 14.8988 0
11.4773 22.0711 0
3.38758 14.8295 0
12.7839 11.6804 0
9.66069 12.1089 0
-8.32276 12.4733 0
-8.34198 11.5978 0
-9.17766 9.66257 0
-7.07338 10.5015 0
-9.77515 15.8612 0
-6.06155 14.8664 0
19.8811 38.5894 0
21.894 38.9136 0
1.36052 12.4797 0
2.20561 10.9395 0
-3.96152 14.5952 0
-3.82216 13.3156 0
-13.2509 14.4441 0
-9.97161 15.1664 0
-0.595794 16.858 0
-0.623592 16.8374 0
7.23108 11.7536 0
6.7768 12.6683 0
8.207 10.119 0
7.1109 11.4884 0
-10.9498 17.1368 0
-13.6644 15.9439 0
-2.80885 15.6903 0
-1.83555 17.1889 0
1.07448 16.0859 0
2.59577 16.0972 0
5.75054 12.8161 0
5.43395 13.4744 0
-7.29249 16.1624 0
-7.05054 16.6741 0
-8.95064 13.7363 0
-6.27191 13.9778 0
3.3701 14.7832 0
4.19591 13.5275 0
-10.3888 19.6826 0
-3.91792 16.9134 0
14.0255 20.0474 0
11.5859 21.2241 0
-16.638 23.7894 0
-14.1025 24.0328 0
7.69317 15.7533 0
6.90735 14.8116 0
12.1935 17.2086 0
8.30266 18.6099 0
3.2933 17.4458 0
5.01766 18.0686 0
0.642869 18.8895 0
2.68577 17.8981 0
-1.15018 25.078 0
-3.75557 23.5628 0
-3.26319 21.885 0
-4.46562 18.859 0
-6.09241 13.7348 0
-4.01651 13.1956 0
-9.58469 18.62 0
-8.05786 17.5858 0
6.97145 22.8015 0
6.30761 19.8864 0
-13.1397 13.743 0
-9.27766 14.2146 0
-9.22271 14.3583 0
-7.0298 15.3881 0
-0.597905 19.1468 0
-0.347711 18.8217 0
14.4217 28.6541 0
1.76115 22.4791 0
16.7474 25.114 0
14.5738 25.7168 0
-15.0399 19.3671 0
-12.2355 20.2193 0
-5.2776 15.2434 0
-5.12621 16.5772 0
7.11245 16.6377 0
5.99452 16.6283 0
0.795574 16.5324 0
1.39475 17.6211 0
9.83668 14.9608 0
12.7235 15.3672 0
12.1898 17.1735 0
7.68601 16.0925 0
-11.8965 21.2289 0
-4.45182 19.2998 0
-2.38162 18.2398 0
-3.54765 18.0854 0
3.13146 22.789 0
3.72868 22.0893 0
-5.68353 17.0441 0
-5.58542 18.2596 0
3.31028 16.8385 0
5.34534 15.9641 0
-2.09106 21.7972 0
-0.561672 23.249 0
1.91127 28.1988 0
12.0809 29.0362 0
-18.6707 40.1268 0
-20.2592 39.7158 0
-14.6329 51.6956 0
-2.74427 24.5665 0
-14.1768 17.7746 0
-12.008 19.8604 0
-1.9409 19.0526 0
-3.5231 19.9934 0
-7.29238 19.7936 0
-5.82836 20.1951 0
12.609 24.9821 0
11.4404 28.1129 0
4.2267 20.3463 0
5.77706 20.6258 0
10.6802 20.4986 0
7.72442 21.5723 0
12.4932 17.6577 0
10.4874 20.0879 0
-13.6488 23.2482 0
-3.84764 21.2409 0
15.831 23.3476 0
14.0987 24.9565 0
1.73373 19.9313 0
2.89361 19.1665 0
-15.7458 20.797 0
-13.6458 22.1708 0
-2.02199 26.7011 0
3.6077 24.054 0
-0.020831 20.6311 0
1.39476 20.9885 0
-8.04978 17.7413 0
-6.73059 18.7363 0
7.38204 17.8228 0
5.87928 18.6838 0
-1.60492 21.011 0
-2.34024 19.7846 0
12.186 17.1851 0
7.53501 17.3645 0
-2.81771 24.1612 0
-1.56592 23.0143 0
-5.77301 20.8623 0
-4.81628 21.5241 0
-4.64428 23.7275 0
-5.24708 22.8691 0
-14.0518 17.5494 0
-10.2946 19.2759 0
4.84455 24.0614 0
5.42955 22.8523 0
-0.377946 29.3325 0
12.1961 55.4487 0
-8.09139 20.6972 0
-7.82807 21.837 0
3.98061 60.2688 0
3.73383 62.0373 0
-10.3647 26.7534 0
-8.39828 29.2397 0
8.82053 19.9363 0
7.58606 21.2462 0
14.5102 20.9188 0
11.9127 22.3668 0
5.10593 22.2569 0
5.95752 21.0448 0
1.79066 20.652 0
3.43181 21.1769 0
3.02535 24.6797 0
5.07006 28.2762 0
4.01325 19.5554 0
5.12968 18.4682 0
1.34046 22.9012 0
1.65477 24.2351 0
12.2521 17.3323 0
8.79745 19.8222 0
-7.14427 34.9364 0
-4.94271 31.1203 0
-14.1842 26.3368 0
-16.9926 25.7815 0
-0.431436 21.1253 0
0.0729619 22.5824 0
-7.26617 22.0254 0
-6.96863 22.8838 0
-9.59536 18.9856 0
-7.29251 19.7911 0
8.3117 25.0507 0
9.19204 23.1967 0
-16.4032 22.5705 0
-13.8996 22.8619 0
-7.41792 23.5815 0
-7.44871 25.1846 0
4.86729 32.3597 0
8.70736 30.7593 0
-14.6203 28.1932 0
-10.1557 27.7804 0
8.19556 25.6074 0
5.50009 27.1191 0
2.24705 27.8819 0
1.15899 26.0439 0
-4.92709 25.5029 0
-4.78616 25.6015 0
19.8161 37.3963 0
21.7282 36.8209 0
-0.294457 24.3123 0
1.02529 24.7725 0
-9.44117 22.5846 0
-9.59664 22.9847 0
6.50483 36.8042 0
10.9103 45.8694 0
-3.4154 25.3563 0
-2.88852 26.5434 0
14.3592 26.2268 0
12.0332 26.7697 0
-18.2308 44.4633 0
-20.2137 44.4089 0
-17.2746 42.1597 0
-8.59326 34.1415 0
9.43819 22.5889 0
8.96708 21.7112 0
-10.6623 24.8981 0
-9.07512 23.675 0
12.3372 24.5553 0
9.92462 24.5139 0
-1.98852 36.5502 0
-0.634215 30.9106 0
-9.71873 20.5502 0
-10.2443 21.4889 0
17.1775 26.4563 0
14.912 26.939 0
14.9459 21.6334 0
12.6596 23.3512 0
17.0234 32.3006 0
13.3446 32.7851 0
-1.97304 29.3041 0
-1.62214 27.689 0
-16.2292 33.101 0
-18.2767 32.202 0
3.1551 25.7155 0
2.02645 26.4668 0
7.84115 29.8461 0
6.868 26.8092 0
5.43685 24.6501 0
4.53162 25.7813 0
-6.34054 28.5242 0
-5.78043 29.2195 0
7.47416 23.4914 0
7.28694 24.051 0
5.98057 29.9515 0
6.56589 32.4508 0
-14.144 26.4591 0
-11.0223 26.5156 0
18.4897 33.5713 0
20.678 33.1077 0
-8.95751 26.0359 0
-6.17271 27.8874 0
-14.6327 35.5724 0
-10.8832 32.6428 0
3.36837 31.7227 0
2.89001 32.0499 0
-16.8163 24.8594 0
-13.8158 25.2143 0
-17.242 27.0439 0
-14.9651 27.4131 0
[...]
CELL_DATA 638
SCALARS cell_division_count float
LOOKUP_TABLE default
1
0
1
0
0
0
1
0
0
1
1
1
1
1
1
1
0
1
1
1
1
1
1
0
1
1
1
1
1
1
1
1
2
4
3
1
1
0
0
1
1
0
0
0
1
2
3
0
1
0
0
1
1
1
1
1
0
0
3
0
1
2
3
1
1
1
1
1
1
1
2
2
1
1
1
1
2
1
1
1
3
1
1
2
9
1
1
1
1
1
1
1
1
1
1
1
1
1
1
1
1
1
2
3
5
2
1
3
5
2
2
2
5
3
2
4
2
3
5
5
6
3
3
6
3
4
6
9
3
5
4
4
8
5
6
6
5
4
5
14
5
5
5
7
5
4
6
4
10
5
3
4
6
6
6
7
6
6
11
7
8
7
6
7
8
18
11
6
8
9
4
7
8
13
6
7
7
8
8
3
6
12
10
11
9
7
11
13
9
16
8
11
10
11
9
9
5
14
6
10
8
13
10
10
8
11
6
10
11
14
8
11
13
11
9
12
9
8
9
11
13
9
11
6
16
13
11
12
11
13
8
13
13
12
15
14
10
8
12
13
14
11
12
12
17
9
14
15
15
12
7
9
14
15
11
14
14
14
13
13
12
12
8
12
16
14
8
9
17
14
15
17
14
14
13
11
14
14
14
14
14
15
14
8
15
9
9
14
13
13
14
12
12
10
12
12
14
15
7
13
13
15
11
14
14
14
8
13
15
12
16
15
15
15
13
14
15
16
12
15
19
10
11
14
16
14
16
17
14
15
12
7
13
13
19
14
15
13
16
16
13
16
15
12
15
14
17
13
10
9
14
18
13
15
14
15
11
17
15
15
15
15
14
13
13
15
14
20
16
15
17
15
15
15
17
8
16
15
15
16
13
14
10
19
16
16
12
16
18
14
18
16
15
9
16
15
14
14
21
16
18
14
13
15
21
18
14
17
8
11
11
14
15
12
17
15
15
16
17
15
16
15
16
16
16
19
16
15
15
17
19
16
19
17
17
17
15
19
14
16
19
11
11
13
13
16
17
18
19
19
17
16
17
17
17
15
17
16
17
16
19
12
11
16
17
17
20
13
16
19
15
16
15
17
19
17
19
14
18
20
17
17
18
19
19
14
14
17
16
16
16
17
19
16
18
15
17
17
17
13
17
18
21
17
18
16
19
20
17
16
20
20
20
19
20
16
11
21
17
18
17
15
19
17
16
17
19
17
17
18
12
19
12
18
17
18
17
18
18
20
17
17
12
17
13
17
20
19
17
19
21
21
19
20
16
17
20
19
12
16
14
16
19
10
18
16
19
17
20
20
17
20
19
18
21
19
17
20
17
17
12
14
16
20
20
16
19
19
20
18
19
19
18
16
17
16
18
18
19
20
19
11
19
19
13
14
21
18
21
15
19
20
20
13
19
20
20
20
19
17
19
18
21
21
17
13
19
20
20
17
21
18
21
20
20
20
21
20
SCALARS cell_time float
LOOKUP_TABLE default
2651
2.22229e+13
2671
4.48239e+13
2.67348e+11
1.25633e+10
2681
2.68224e+09
9.19769e+11
2671
2671
2661
2631
2681
2601
2641
1.22866e+06
2681
2651
2681
2681
2581
2621
26463.4
2681
2681
2681
2681
2681
2571
2631
2571
2531
2271
2421
2521
2661
1.00108e+18
2.94533e+15
2631
2621
107763
4025.76
2737.34
2611
2511
2311
2728.01
2621
5379.01
2996.18
2601
2641
2651
2661
2631
1.12104e+13
23846.3
2101
4717.96
2631
2551
2371
2681
2681
2681
2681
2681
2681
2681
2561
2441
2681
2671
2671
2671
2501
2661
2661
2661
1801
2651
2651
2511
1431
2651
2641
2641
2631
2631
2631
2631
2631
2621
2621
2621
2611
2601
2601
2581
2571
2571
2561
2431
2251
2531
2521
2371
2151
2511
2511
2511
1801
2091
2501
2121
2441
2431
2161
2121
2011
2391
2371
2001
2371
2091
2101
1791
2311
2161
2291
2291
1071
2101
1991
2021
2221
2001
2191
1021
2161
2161
2151
1851
1281
2121
1891
1871
1521
2101
2091
2091
2091
2081
2021
1821
2011
2001
1361
1431
1351
1811
1401
1741
1811
341
1491
1891
1881
1431
1871
1851
1851
701
1211
1681
1821
1541
1811
1801
1531
1221
1671
1431
1751
1741
1371
1161
851
71
1491
1541
1661
1251
1431
1231
1631
1021
1611
1611
1011
1031
1581
1551
1541
1541
1531
1521
1501
1041
1491
1481
761
1471
691
921
1431
1211
1431
1431
1151
1431
1421
1401
581
581
1371
1371
1361
1141
1351
901
891
861
861
1061
1291
511
1271
1261
431
1261
881
311
101
1231
1021
871
341
1221
911
1001
581
901
421
901
901
901
971
1141
961
961
591
921
541
641
1071
1071
361
1061
491
121
1041
841
1031
351
1031
1021
1021
371
1021
541
1021
1011
881
821
1001
881
881
971
521
961
951
941
921
921
541
771
911
911
901
901
511
901
901
901
711
891
621
881
341
471
881
621
881
701
871
591
861
861
61
131
851
681
351
841
221
211
671
341
191
811
11
801
151
781
771
761
571
301
751
521
741
731
551
731
371
711
711
551
711
81
701
501
701
441
61
351
511
681
341
531
671
401
311
291
641
41
501
621
161
621
491
621
291
591
591
591
591
581
581
581
581
61
461
91
101
571
111
561
71
311
551
551
541
541
541
211
1
151
71
531
41
531
21
301
521
371
511
221
511
511
511
361
251
501
371
501
371
491
491
491
251
351
481
11
131
471
471
321
91
461
121
191
201
271
441
31
431
431
171
421
421
281
401
301
121
271
91
71
211
81
371
181
371
371
371
141
361
211
61
361
351
351
351
191
91
61
351
241
341
341
341
31
111
191
41
101
331
11
211
321
191
131
191
61
141
21
311
101
301
151
171
301
1
291
291
191
81
281
111
271
61
271
271
141
121
161
251
251
41
41
101
31
11
221
221
1
211
91
211
51
91
211
211
11
101
211
201
201
201
91
191
61
191
191
191
31
191
1
111
191
181
181
181
181
71
171
161
51
61
31
151
51
151
151
41
151
141
141
141
141
141
131
131
131
131
121
121
1
121
1
121
111
1
111
111
111
111
101
101
101
101
101
1
91
91
91
91
91
91
91
81
81
81
71
71
71
71
71
61
61
61
61
61
61
61
61
61
51
51
51
41
41
41
41
41
41
31
31
31
31
31
21
21
11
11
11
11
11
1
1
1
1
1
1
1
1
SCALARS cell_area float
LOOKUP_TABLE default
3.24158
3.29961
3.29289
3.3556
3.35088
3.34305
3.32597
3.37387
3.34822
3.28118
3.33601
3.28156
3.38564
3.31843
3.30529
3.32936
3.39788
3.28803
3.34552
3.39687
3.39122
3.33866
3.33857
3.37104
3.35731
3.37478
3.4389
3.40097
3.39032
3.32849
3.24625
3.29592
3.35037
3.33595
3.44339
3.2488
3.34429
3.25241
3.26087
3.24835
3.23644
3.27751
3.26121
3.27789
3.21923
3.28331
3.25445
3.26217
3.25836
3.24761
3.26735
3.27296
3.21622
3.25692
3.24456
3.24198
3.20928
3.21642
3.26423
3.19546
3.24593
3.30512
3.26752
3.2797
3.33645
3.28408
3.39789
3.35066
3.27886
3.35549
3.45113
3.3502
3.35593
3.28622
3.2478
3.27397
3.34045
3.3505
3.23055
3.22188
3.21749
3.25824
3.33417
3.33033
3.36915
3.22239
3.29608
3.25203
3.36891
3.28659
3.22427
3.20351
3.21562
3.30312
3.25116
3.24396
3.25788
3.32338
3.26272
3.29939
3.2889
3.26248
3.40072
3.23071
3.29175
3.23919
3.32735
3.38322
3.29
3.27806
3.25674
3.27092
3.27165
3.29206
3.24453
3.31514
3.35535
3.40453
3.25335
3.42321
3.30177
3.34762
3.2704
3.34717
3.40531
3.25814
3.44045
3.39601
3.21424
3.27872
3.33364
3.20492
3.28114
3.3698
3.31297
3.35338
3.36527
3.25935
3.36399
3.30705
3.24765
3.27953
3.3143
3.27265
3.23865
3.34692
3.40002
3.2671
3.37905
3.31229
3.29891
3.22966
3.37214
3.36036
3.38269
3.38593
3.33736
3.30771
3.35448
3.26931
3.25508
3.4101
3.28359
3.31896
3.36841
3.36505
3.37001
3.32756
3.29929
3.36588
3.26917
3.3243
3.43171
3.29359
3.27188
3.22723
3.36046
3.36701
3.39218
3.23727
3.29641
3.3094
3.43708
3.3911
3.3899
3.3166
3.38766
3.40542
3.30039
3.30116
3.27251
3.41184
3.40381
3.28555
3.35592
3.27
3.2322
3.28895
3.2367
3.34291
3.25627
3.34405
3.4214
3.35283
3.30072
3.39261
3.28717
3.35054
3.38613
3.3688
3.30673
3.39409
3.40029
3.35758
3.27718
3.31941
3.34241
3.27223
3.37387
3.37194
3.449
3.35199
3.40315
3.27539
3.38484
3.28891
3.39983
3.33128
3.30643
3.37201
3.21602
3.36112
3.43659
3.26316
3.34996
3.41646
3.43077
3.28127
3.39291
3.38702
3.29334
3.37425
3.26735
3.35886
3.33691
3.33879
3.38345
3.29681
3.31576
3.31752
3.28969
3.24544
3.33181
3.37908
3.30794
3.39457
3.31958
3.35286
3.40774
3.34088
3.3466
3.30631
3.23546
3.36723
3.38066
3.40797
3.27148
3.28065
3.38933
3.37368
3.3759
3.31591
3.37963
3.39021
3.38314
3.30698
3.34474
3.33787
3.35541
3.29564
3.26261
3.35114
3.36909
3.25995
3.38111
3.24787
3.29516
3.2916
3.35221
3.34864
3.36274
3.30815
3.36903
3.28447
3.38921
3.35595
3.37332
3.39712
3.30728
3.39444
3.33532
3.38278
3.33983
3.34908
3.34921
3.32916
3.25732
3.40066
3.38351
3.3099
3.39
3.32581
3.31716
3.33643
3.39686
3.31305
3.40122
3.37603
3.35576
3.35079
3.26972
3.32374
3.28994
3.34375
3.37236
3.35328
3.30829
3.28771
3.37553
3.3176
3.30483
3.27947
3.30285
3.33553
3.31817
3.37643
3.35212
3.29624
3.37816
3.3635
3.34028
3.31185
3.28037
3.29688
3.31895
3.35148
3.33215
3.34167
3.24821
3.34161
3.4224
3.29755
3.33359
3.34546
3.31532
3.35759
3.29035
3.35892
3.34821
3.35157
3.30874
3.31472
3.35981
3.3012
3.30283
3.28733
3.33838
3.31623
3.38044
3.34105
3.35284
3.31978
3.39708
3.35324
3.33189
3.27408
3.36861
3.30116
3.37715
3.3642
3.30495
3.30454
3.3197
3.33068
3.33925
3.35546
3.30174
3.36442
3.37539
3.30352
3.36184
3.31881
3.32639
3.31181
3.28905
3.36786
3.30891
3.25645
3.36576
3.30625
3.33445
3.31256
3.32158
3.37583
3.36033
3.3256
3.33916
3.29859
3.2889
3.29548
3.30459
3.35683
3.36187
3.30492
3.34812
3.31069
3.32383
3.34412
3.34429
3.35332
3.30501
3.36002
3.33808
3.4208
3.36921
3.34475
3.34943
3.35053
3.37592
3.3692
3.35006
3.35849
3.34659
3.32142
3.32802
3.32753
3.30872
3.35379
3.31999
3.32077
3.30423
3.28924
3.25625
3.30973
3.29773
3.2797
3.32454
3.35474
3.37013
3.38025
3.32974
3.28715
3.29093
3.36435
3.37738
3.30986
3.31852
3.30953
3.35238
3.30881
3.30838
3.28718
3.30619
3.38105
3.34735
3.39209
3.31791
3.32895
3.31611
3.37936
3.29855
3.37319
3.32542
3.33804
3.31508
3.30951
3.28391
3.31293
3.30342
3.3514
3.33862
3.27035
3.3454
3.41977
3.29151
3.33962
3.315
3.29596
3.29085
3.31577
3.38129
3.31667
3.34905
3.30596
3.3425
3.35276
3.32006
3.31068
3.31413
3.31408
3.31098
3.32894
3.34756
3.33273
3.35157
3.34534
3.33251
3.33822
3.37545
3.33134
3.3473
3.31902
3.31711
3.29061
3.2728
3.32619
3.2518
3.379
3.28667
3.34912
3.33732
3.31236
3.34799
3.3738
3.3711
3.31221
3.33083
3.3265
3.30407
3.3067
3.31327
3.28898
3.3349
3.36505
3.32332
3.33689
3.3336
3.30911
3.36033
3.33615
3.37931
3.33493
3.32703
3.3474
3.31262
3.31999
3.34678
3.35945
3.36465
3.3122
3.33675
3.29229
3.38477
3.32102
3.3534
3.34644
3.28964
3.32028
3.30485
3.29912
3.3108
3.28098
3.29335
3.24306
3.31905
3.2889
3.32203
3.32956
3.31536
3.38949
3.3069
3.36934
3.37846
3.34001
3.36876
3.34836
3.37003
3.34029
3.35466
3.26244
3.30196
3.26108
3.29067
3.3586
3.37394
3.39502
3.32221
3.33823
3.36453
3.36117
3.32722
3.30899
3.3123
3.3261
3.32087
3.27379
3.28676
3.32574
3.34974
3.31676
3.3081
3.26965
3.32563
3.35066
3.32363
3.33136
3.3144
3.31147
3.3626
3.34848
3.30498
3.31267
3.32178
3.32543
3.30584
3.36468
3.27515
3.35107
3.30106
3.32335
3.31869
3.28195
3.31104
3.28418
3.30012
3.30679
3.24373
3.28412
3.30913
3.27644
361
569
3.30116
179
495
3.32077
3.4101
0
SCALARS cell_perimeter float
LOOKUP_TABLE default
6.92891
6.94209
6.96431
7.19625
7.12725
6.81997
7.08025
7.65337
6.93484
6.9278
7.38958
7.00267
6.79838
7.2462
7.04409
6.79383
7.17489
6.96969
6.92281
6.97711
6.94381
7.2737
7.24223
7.58235
7.59975
6.95808
7.96735
7.14985
6.90471
7.07041
6.94888
7.05065
8.18005
7.0344
7.11976
7.33972
7.89763
7.51956
7.8263
7.63832
8.2685
8.6622
8.18839
7.76164
7.38235
9.61403
8.03266
7.6536
8.04777
7.65606
8.12467
8.44112
7.78349
8.07038
7.67224
7.21538
7.43647
7.38979
8.78916
7.32421
7.72707
9.71557
8.62173
7.0363
7.153
7.24277
6.90081
7.09088
7.18542
6.86523
7.78214
7.07328
7.17226
7.07814
7.24069
7.21804
7.78726
7.2726
6.93606
7.8716
8.24256
6.79027
7.02268
7.85233
7.51886
7.97871
6.82272
7.97924
7.08947
6.99777
7.79706
7.31358
7.65211
7.13137
7.93141
7.97135
7.36418
6.94448
8.22395
7.19048
7.17082
6.94375
7.11384
8.05932
7.21769
7.03244
6.85435
7.46417
7.31759
8.59847
8.66382
8.5724
10.1767
7.21577
7.23979
7.05729
6.91723
7.38623
8.26479
7.12925
7.64936
7.28873
8.95262
7.1737
7.26225
8.56956
7.22926
7.11798
7.72071
7.02648
7.28622
7.79179
8.1888
7.32807
7.31048
7.06163
7.0508
8.13538
6.94408
7.30677
8.21171
6.91343
7.57668
7.56503
7.32972
7.23001
7.21255
9.21397
7.05977
7.33682
7.30788
8.19094
7.08858
7.14506
6.8183
6.839
8.01666
6.99437
7.55315
8.0598
7.67582
6.82658
10.1238
7.32499
7.11836
6.85028
6.99258
7.15827
7.42909
7.13845
9.41868
7.85859
7.14125
7.44561
7.43632
8.17637
6.99652
7.10904
7.00538
7.98653
10.9305
6.96343
6.93633
7.0619
6.90044
7.34408
6.92267
6.91174
7.32198
7.12688
9.44779
7.02411
7.3093
7.35423
6.91962
7.21319
8.35439
7.31143
7.50637
6.97802
8.38779
7.03565
7.20669
7.04286
7.05898
6.88968
10.509
7.05975
6.93226
6.93115
10.0107
6.91668
7.0214
7.04892
7.40158
7.02798
7.67697
8.16976
7.00946
6.98943
6.9569
7.03477
7.01865
9.60465
7.33729
8.15299
7.08235
7.09859
7.42157
7.10936
7.65777
7.1479
7.08875
7.32668
7.15377
6.94802
6.94616
7.34465
6.91945
7.06314
6.84844
6.94304
7.53998
7.24309
6.99537
6.94041
6.8309
7.16106
6.89282
7.01601
7.86216
8.1379
6.825
7.08938
7.29456
7.30599
7.14323
7.37189
6.89397
7.13106
7.35095
7.6235
7.42135
7.17055
7.11958
6.94365
8.02899
7.84361
6.89108
7.13788
7.03725
6.95575
6.91649
7.60019
6.96653
7.2094
7.0154
7.38485
7.44539
6.9587
7.43384
6.91079
6.97078
8.55905
6.80194
7.30262
8.38613
7.41483
7.16277
7.06374
6.96026
7.66382
7.29356
7.57246
7.1153
6.95351
7.05846
7.22014
8.20855
7.01937
7.1185
6.97535
9.09991
7.23454
7.09273
7.1227
7.90223
7.05509
7.04003
7.69474
6.96249
7.42457
7.01639
6.82481
7.23539
7.12359
7.0006
7.1044
6.82586
7.13518
7.1729
7.65482
7.68059
7.06775
6.90145
7.19562
6.96928
7.14887
6.91117
6.992
7.22719
7.48071
7.38453
7.02806
6.97027
7.0189
7.62944
7.35508
6.95609
7.35475
7.03886
7.02554
7.27855
8.40615
6.99554
7.17759
7.01039
6.92299
7.50791
9.41441
7.42104
6.96364
7.43691
7.11524
7.18396
6.89418
7.19144
6.84962
6.9226
6.95035
6.92964
6.95151
6.85392
7.14035
7.22478
7.02689
7.10161
6.9516
7.20723
7.01725
6.94788
7.08636
6.94661
7.08104
6.89377
7.61
7.92766
7.02563
7.31094
7.00166
8.73415
6.83502
7.49643
6.87766
6.88611
6.77078
7.20505
7.0517
6.85236
7.02069
6.85742
7.01122
6.85778
8.82139
6.99262
6.98149
7.12955
7.31438
6.87606
6.88653
6.98269
6.97079
7.58701
6.91564
7.11113
6.96062
6.91642
7.15172
7.51367
7.24579
8.52634
6.98734
6.99955
7.53495
7.00107
6.96615
7.11796
6.9049
7.10162
6.98108
7.00976
6.87784
6.91293
7.25454
6.97369
7.57424
7.09996
7.34257
6.90206
6.8216
6.82523
7.02896
7.11909
6.85528
6.88897
6.87812
6.98218
6.95149
6.82751
6.99583
6.88978
7.15282
7.34244
7.56062
7.10688
6.98271
6.87127
7.06771
6.82456
6.84682
6.94276
7.02258
6.92232
6.83738
7.02478
7.0082
7.07297
6.94976
7.01707
6.9946
7.03842
7.35099
7.27245
6.85928
6.90098
6.82545
6.94727
7.14575
7.46986
7.12547
6.93568
6.8664
7.21495
7.38197
6.90837
6.79854
7.10012
7.36241
6.8722
7.10421
6.87711
6.9129
6.97925
7.10682
6.93303
7.17084
7.29175
7.33214
7.02717
6.89118
7.11621
7.01472
6.84671
6.96133
7.04038
7.54818
7.015
7.02482
6.84647
7.68356
6.95372
6.98298
6.87354
6.83031
6.98629
6.9634
6.97022
7.20761
7.07426
6.89053
6.9483
7.19172
6.97848
7.16429
7.19213
6.88656
7.32418
7.35433
7.15605
6.84897
7.01534
7.22821
7.03858
7.04286
7.51568
6.86999
7.1886
6.97198
6.96113
7.07584
7.08787
7.15143
7.46578
6.98313
6.88123
7.17674
7.01657
6.88215
7.75382
7.02193
6.97539
6.92849
7.15993
6.88781
7.12087
6.83118
6.74596
6.96948
7.07865
7.22675
6.90622
6.93705
7.0614
6.9185
6.8113
6.90509
7.06932
6.80126
7.2291
6.97179
7.18646
6.9288
7.11907
7.3367
7.08374
6.99921
7.11476
6.93616
6.91241
6.9755
6.82971
7.3358
6.86865
6.83358
6.9296
7.08656
6.97417
6.91574
7.08153
6.94973
7.14017
7.34296
6.92326
7.17811
6.82626
6.95437
7.08814
7.01087
7.11566
6.88743
7.07892
7.22528
7.1026
7.23376
7.09329
7.16806
6.94571
6.94678
6.86842
6.83253
6.934
7.41108
6.87044
6.85517
7.08871
7.14737
6.96762
7.00388
6.82461
7.40669
7.03778
7.07979
6.90235
7.52844
7.00664
6.84575
6.99198
7.03175
7.13336
6.8971
7.18535
7.00702
6.88874
6.95693
7.34824
7.40181
7.29202
7.2136
7.17434
6.90405
512
585
3.31881
193
509
3.3243
3.44339
0
SCALARS cell_frequency_modifier float
LOOKUP_TABLE default
2.99345e+18
6.35283e+17
3.59322e+17
3.4251e+15
1.08726e+15
3.28641e+14
1.14663e+13
5.76385e+13
1.88547e+15
8.84482e+16
7.28753e+13
4.90281e+15
3.11869e+11
8.19168e+12
2.23907e+15
1.24147e+15
2.2373e+13
2.21202e+14
2.91992e+11
5.80841e+09
3.09245e+11
3.95417e+12
3.26852e+13
2.64672e+12
2.54301e+11
2.38222e+10
3.71401e+09
9.58187e+09
1.44187e+11
1.07936e+12
5.80261e+14
1.66237e+13
1.54678e+10
2.81855e+09
1.80866e+08
2.60561e+13
4.35846e+11
1.18535e+19
4.54245e+18
1.00544e+18
2.79492e+16
7.52338e+15
3.251e+15
2.05098e+14
5.4848e+13
1.3929e+12
2.43675e+11
1.53439e+13
6.21974e+13
3.11236e+15
7.00185e+15
1.69213e+16
1.62814e+18
6.75838e+18
10000
10000
4.43398e+17
1.03602e+15
2.6649e+09
1.06657e+15
4.95338e+17
5.39379e+10
6.52157e+11
1.14827e+16
1.30406e+13
6.30024e+14
4.67341e+09
5.4365e+10
5.43893e+13
3.34627e+10
9.05048e+08
2.72107e+09
7.61547e+10
7.71527e+16
2.78243e+16
1.72792e+15
1.30483e+10
3.11896e+12
3.93191e+14
10000
2.03416e+09
3.43081e+18
9.52463e+10
8.66795e+09
184617
6.18088e+18
4.36946e+16
2.21403e+18
4.20993e+10
1.23108e+14
3.16299e+18
10000
2.28448e+17
1.88573e+15
7.77921e+16
1.87266e+14
1.23311e+13
8.88185e+13
4.8728e+16
4.01377e+14
6.12324e+14
4.07131e+13
9.4892e+08
2.94594e+11
1.30977e+10
8.57133e+12
9.29377e+10
9.62129e+07
2.12758e+11
3.26607e+12
2.86411e+10
4.00727e+12
1.21452e+09
2.79009e+11
6.75029e+12
8.42825e+08
1.18988e+10
6.61606e+08
9.66342e+10
1.90943e+07
9.9357e+08
2.74254e+09
1.61558e+12
3.44032e+07
1.49127e+08
1.28233e+09
6.27359e+06
2.13809e+06
8.73321e+10
5.85055e+10
1.17016e+09
1.42473e+10
1.1733e+06
2.85844e+08
7.95443e+07
1.62794e+08
3.19446e+07
4.95576e+07
5.44309e+07
333040
3.81116e+10
6.5645e+10
1.10592e+10
2.63501e+09
2198.84
5.4717e+08
2.45256e+07
6.37911e+09
11031.5
8.68181e+08
1.41587e+11
6.24238e+08
5.90381e+06
1.37562e+07
4.01929e+07
5.14547e+06
1.25699e+08
5.27922e+08
320331
2.2077e+07
5.35334e+06
5.72421e+06
1.95032e+08
8.7234e+06
1.41987e+06
3.50517
36635.5
2.64199e+08
4.15883e+08
55401.5
1.28601e+10
6.36668e+07
834990
114342
838437
1.0288e+08
7.82281e+06
1.52651e+06
2.24258e+06
5.21859e+09
7.29209e+08
1.22406e+06
365784
53916.3
1.28626e+06
2.74138e+07
40155.1
4118.47
369.534
137.785
1.499e+08
161553
317249
962946
370746
1.77926e+07
1.0286e+08
7.87788e+06
1.95553e+06
1.03474e+06
2.36832e+07
3203.13
195372
1.83937e+06
1.41084e+08
92505.6
3.92228e+08
36851.4
132794
9434.3
1.27826e+07
20606.7
153.963
134266
158.427
5283.26
210029
1.10838e+07
85097.2
202342
4933.26
1.01149e+06
13864.5
1.34282e+08
39.3519
25831
48436.4
109810
9.38669e+06
15704.5
1.25366e+07
18156.9
371.738
353734
3130.11
1209.85
6392.61
3756.42
13078.7
25020.2
2159.44
4000.91
457727
0.655405
5.01608
60726.9
12062.5
1.23782e+06
68.4417
292326
367695
6.58296e+06
78.5012
258.623
94.608
1399.97
1717.52
7911.05
639.737
20483.5
350.417
44576.3
21093.2
2413.93
29.1612
56.4539
2.27737e+06
606331
2.90253
743.923
9.28702
3.3763
3592.94
245.971
4383.28
6.58733
7208.89
22821.3
58505.1
104.2
3.31588e+06
66.3272
1274.42
4.2085e+07
465.547
101.358
2.99736e+06
170836
198.254
3479.92
108.853
60632.5
539.885
271404
745.042
3500.18
185.645
135.537
8886
236.298
12031.4
416.5
37.1391
2432.08
1583.04
7209.32
60552.2
443.334
43.334
6112.49
2.86158
61.6181
1490.96
761.767
144.227
212.568
1312.51
76.1988
1432.6
1273.88
117.714
5.63005
135352
79.6367
4.2724
494.698
25.756
694.892
117.514
29.7995
17.0081
11122.7
100.687
112.026
4.86794
176.085
165.521
66837.2
107.434
4.20348
25.7972
47.7064
82566.7
65566.9
89.3407
162.558
14.9405
64.0045
15002.4
601.621
46.1467
164.124
482.668
67.3755
377.945
17.9083
100.009
7.93948
40.0186
72.5871
4.55349
102.767
110.758
161.381
169.388
375.72
65.6205
1.66831
14.4591
130.447
2.58106
2088.26
8.54432
32.7188
16.6813
34481.6
181.976
3272.36
23.6899
69.8743
4591.45
3139.25
45.3073
2.06475
20.0313
0.461143
106.923
88.4371
0.678405
2719.89
1.66974
26.4039
54.8616
1704.5
13420
112.778
1033.15
141.654
0.548111
18.7927
0.80317
144.686
1.14698
20.7184
0.505442
5.29499
137.443
3414.75
6371.06
203.122
1498.41
13.2463
38.9886
108.506
4.96815
240.087
8.53755
24.148
21.8301
23.0976
191.418
10.0222
3.42556
4.13965
16.4144
0.73791
1.0211
27.0364
6.00853
3.60837
0.674348
7.12139
0.979424
4.79485
10.6865
2.04471
138.633
1.22397
26.8257
13.0927
30.5338
1372.75
134.681
11.9409
150.13
148.77
2.8847
5.17265
0.514905
0.85335
5.84643
108.993
1164.06
1.71093
15.1126
35.0644
42.0132
4.81027
8.80252
20.7363
5.70416
1324.41
11.4281
5.24255
8.50401
2.63042
1.85192
1.0529
13.2851
1.70221
2705.73
5.2823
13.1351
0.797845
1.70871
3.50494
144.257
2.13338
79.3466
0.502156
1.87711
135.182
3.14655
0.527696
102.662
1.05095
3.73139
104.08
3213.28
6.65367
5.30738
4.0713
2.11273
48.4585
0.898908
2.67047
25.9368
10.6583
3.54628
10.9892
5.29548
4.43907
0.715866
2.68626
3.36184
0.751301
1.4008
0.69636
2.56785
2.48993
0.590434
1.30004
4.4543
101.914
109.104
4.0167
263.765
0.449909
549.658
1.04953
2.88837
2.61928
1.11413
1.73189
2.54817
2.2638
0.878245
3.87416
405.839
10.4667
2.72635
104.24
0.928699
0.404237
7.90679
1.20651
9.92449
3.29656
1.28258
0.80946
0.430891
2.19778
1.04225
1.65543
3.35063
1.41084
0.618284
1.37732
3.2804
3.8795
0.739829
103.075
1.55458
1.16599
1.42637
1.13573
100.317
1.18174
14.2722
165.154
7.35408
155.284
106.361
811.501
1.62661
151.666
2.43002
1.8568
1.68661