# vtk DataFile Version 2.0
2D-vertex
ASCII
DATASET UNSTRUCTURED_GRID
POINTS 340 float
0.259568 -2.00331 0
2.83637 -1.79272 0
3.21964 -0.886095 0
2.23618 0.159952 0
-0.15436 0.342775 0
-0.900261 -1.06764 0
3.82454 -0.850954 0
4.40202 0.0100953 0
3.5303 1.43434 0
2.38732 1.1064 0
1.21078 2.26897 0
-0.559484 2.83397 0
-1.3602 1.60668 0
-1.61665 1.55127 0
-2.12961 0.0506773 0
-1.65098 -0.814809 0
4.99376 -0.143604 0
5.88993 0.777611 0
4.10302 2.1638 0
3.73897 2.07663 0
2.93941 2.96925 0
1.74417 2.89332 0
1.20616 6.17582 0
0.067098 6.12742 0
-0.647459 4.38609 0
-2.03037 3.67115 0
-2.01018 1.95125 0
-3.39295 1.68244 0
-3.86917 0.79801 0
-3.58374 0.0943051 0
6.99311 0.801819 0
7.67297 1.62824 0
7.43843 2.90795 0
5.29015 3.85195 0
5.82577 4.48635 0
3.42538 5.56723 0
2.74369 6.64778 0
1.67276 6.79788 0
0.571362 9.4984 0
-1.17774 9.422 0
-0.782746 6.91198 0
-2.59323 6.11392 0
-3.54016 4.83775 0
-4.67353 4.92905 0
-5.34843 3.78598 0
-6.81523 3.55357 0
-7.10123 2.62711 0
-5.51114 1.12885 0
7.95979 3.69202 0
7.64498 4.58617 0
6.99842 4.89086 0
6.27005 6.85383 0
3.85768 7.75985 0
3.75018 8.45056 0
2.23148 9.7123 0
2.81679 10.5758 0
-2.24816 10.6391 0
-2.23018 10.0605 0
-3.41124 9.00744 0
-3.1348 7.11376 0
-4.96681 7.65544 0
-6.30281 6.59912 0
-8.28754 5.49048 0
-8.17577 4.85221 0
8.60089 5.09373 0
8.61953 5.17153 0
7.26045 6.97194 0
7.55917 8.35166 0
6.38113 9.28683 0
6.54776 10.1425 0
5.87113 10.8642 0
5.89234 11.2934 0
-2.86454 12.9211 0
-3.08844 12.747 0
-6.74298 11.2644 0
-6.10648 10.0685 0
-6.85352 9.11131 0
-6.71315 8.69985 0
-9.22912 6.24784 0
-9.07109 5.7233 0
10.0808 5.56099 0
10.3778 6.68145 0
9.64901 7.68693 0
10.6724 8.14974 0
10.3383 9.77837 0
10.5319 10.6961 0
8.88858 15.8726 0
7.83663 19.0551 0
-7.44639 18.6457 0
-7.72203 18.0412 0
-10.4865 11.5815 0
-10.1792 10.7381 0
-10.5769 10.1951 0
-9.85463 8.85316 0
-10.5981 7.62915 0
-10.192 6.45526 0
3.71444 -3.59597 0
4.96645 -3.0277 0
5.86692 -2.58388 0
8.29221 -0.891274 0
9.58926 0.624596 0
10.8906 3.03627 0
11.0486 3.34532 0
11.746 4.54112 0
12.4392 6.58491 0
12.616 7.49647 0
12.4912 11.2326 0
9.00457 20.5296 0
-8.98639 20.3727 0
-12.4662 11.9241 0
-12.6202 10.3346 0
-12.5073 7.4807 0
-11.803 5.39389 0
-11.0007 4.14464 0
-10.3594 3.24749 0
-9.33799 1.6529 0
-7.35668 -0.600212 0
-5.20402 -2.07734 0
-3.0335 -3.11251 0
0.0187887 -3.95494 0
11.922 13.4908 0
9.02359 12.683 0
-11.6784 15.7975 0
-9.72407 15.3719 0
-0.452185 4.13872 0
1.04836 4.2691 0
-2.04099 6.01709 0
-1.43394 4.38135 0
4.836 5.8291 0
5.1816 6.80608 0
0.230419 10.8057 0
0.0801844 9.92968 0
-1.39279 8.06434 0
-2.79738 7.79742 0
6.26956 6.85628 0
5.41939 8.66675 0
4.46157 9.03599 0
4.3184 10.1949 0
2.44783 11.2435 0
2.44633 11.2415 0
-3.00392 11.1027 0
-4.60527 9.99769 0
-4.20781 9.1387 0
-5.04787 8.26283 0
1.30166 1.75467 0
-0.203767 0.706786 0
6.62442 3.07422 0
5.56149 1.37686 0
5.28792 3.85309 0
3.24986 4.49561 0
-9.24133 12.9581 0
-6.48266 11.7317 0
3.21811 4.47911 0
1.66598 5.09296 0
-9.75723 8.62936 0
-8.35363 7.79333 0
-0.968251 -1.09979 0
-1.39775 -3.69539 0
1.51266 21.9522 0
1.74181 23.9191 0
1.12549 -1.64558 0
1.2371 -0.274085 0
2.63257 8.76786 0
1.44201 7.56241 0
8.89407 11.8688 0
5.98812 11.1505 0
4.3532 20.4485 0
0.440849 12.3761 0
-2.95243 -0.202995 0
-3.66516 -2.84283 0
-4.79084 2.77996 0
-5.62598 1.74922 0
-5.91657 -1.65072 0
-4.85132 0.669607 0
0.384411 8.04277 0
-0.715686 7.5113 0
9.60539 7.37466 0
8.01763 6.46206 0
5.70544 0.245677 0
7.36405 -1.65305 0
1.63211 -4.03477 0
1.66804 -2.07642 0
-6.61675 1.90198 0
-8.16031 0.160572 0
-6.00532 5.45835 0
-7.26954 4.43417 0
7.76931 3.09916 0
10.1641 1.56715 0
-12.6268 8.93007 0
-9.85653 8.85152 0
12.7501 9.62853 0
10.8233 9.32881 0
-3.16026 3.92208 0
-4.01673 2.73312 0
-9.85652 2.49752 0
-7.27877 3.93036 0
-4.06741 6.97992 0
-4.85498 5.28764 0
-7.39557 7.82137 0
-6.98634 6.7758 0
8.53246 8.6556 0
8.74821 9.38774 0
-0.951521 12.1717 0
-0.865076 11.5057 0
11.8598 13.9844 0
9.63721 14.2853 0
8.41744 17.1585 0
2.30702 11.4698 0
8.07612 10.3514 0
9.3317 11.5577 0
-8.01276 9.43657 0
-8.27399 10.4794 0
-2.28967 14.5023 0
0.953988 13.6448 0
-9.15736 16.0856 0
-4.45368 12.9609 0
9.33185 11.5602 0
12.1393 12.6078 0
-8.7172 17.9871 0
-10.0212 19.286 0
-12.2113 13.3184 0
-9.52904 12.667 0
7.61415 21.5988 0
6.69008 20.0637 0
8.66403 12.9817 0
6.64596 12.5963 0
-9.49468 12.515 0
-7.8312 11.2314 0
2.40419 14.6166 0
4.3506 13.5278 0
-5.038 11.7989 0
-4.24439 10.7178 0
4.9879 13.5085 0
4.48806 11.7261 0
11.502 16.0333 0
9.61413 15.3611 0
-2.84303 14.2842 0
-4.78451 14.0485 0
-0.950635 21.706 0
0.061235 14.9203 0
-7.07633 12.7243 0
-4.87627 13.4801 0
-11.9853 14.422 0
-9.5898 13.9661 0
4.3049 18.2027 0
6.90995 16.8588 0
-1.00522 13.782 0
-0.671276 12.4396 0
-5.6551 20.807 0
-6.86585 22.268 0
0.986696 21.7236 0
1.99073 15.7431 0
-2.69359 17.0768 0
-4.9016 20.998 0
-9.45086 16.8106 0
-11.1813 17.3693 0
-5.92769 16.4745 0
-6.09182 14.9633 0
-6.83025 13.177 0
-7.29087 14.7034 0
10.3568 18.7936 0
8.64713 18.0092 0
-2.94708 22.1999 0
-2.85089 23.9433 0
6.16343 13.4963 0
4.98949 13.5065 0
7.30359 19.0516 0
6.41336 17.689 0
3.83761 14.5925 0
5.13412 17.8566 0
-1.85387 15.8346 0
-0.479863 15.9106 0
5.10666 22.9941 0
4.02992 21.1996 0
0.27827 14.8961 0
1.23657 15.9698 0
2.42661 21.3088 0
3.18159 17.385 0
11.0044 17.4071 0
8.99914 16.6275 0
-7.20903 16.987 0
-8.0168 15.9572 0
-9.30527 14.3238 0
-7.51923 14.2446 0
-5.92087 19.8319 0
-4.67824 17.6661 0
-0.00531228 22.3756 0
0.0106931 24.0625 0
1.88734 13.7045 0
2.8475 12.5458 0
-3.29299 16.7054 0
-3.61701 15.0353 0
-8.02927 21.2762 0
-6.53595 19.6687 0
0.51275 17.7766 0
-0.0247796 17.5334 0
7.32088 15.1546 0
6.55943 15.765 0
8.75458 13.7672 0
7.31069 14.5945 0
-4.56342 21.9762 0
-5.25923 23.3039 0
-2.27978 16.9165 0
-0.872543 18.0394 0
1.09334 17.3916 0
2.21183 17.9753 0
5.77992 15.5354 0
5.07692 16.1665 0
-4.56823 18.6995 0
-3.77356 19.1002 0
-6.80812 18.7626 0
-5.34218 17.3927 0
3.19825 16.6698 0
4.30534 15.8866 0
-2.2487 21.1484 0
-2.84153 18.6101 0
3.2064 23.658 0
2.93631 21.5859 0
-1.69285 24.0161 0
-1.45697 21.89 0
5.59163 19.9467 0
5.32747 17.9956 0
6.28332 22.3865 0
5.24136 20.4424 0
2.49586 19.5036 0
3.81845 19.6269 0
0.85577 19.4734 0
2.18646 19.8165 0
0.505999 19.8855 0
-0.411392 19.8771 0
-1.05256 19.1607 0
-1.82962 19.4071 0
-5.43978 16.695 0
-3.89108 14.996 0
-2.4325 21.1926 0
-3.76417 20.1285 0
2.34663 20.8118 0
4.14796 20.1332 0
-8.50783 20.8245 0
-6.78039 18.8549 0
CELLS 171 1134
5 0 160 161 4 5
6 7 8 9 3 2 6
6 145 4 161 3 9 144
8 13 14 15 156 5 4 145 12
8 7 16 178 17 147 18 19 8
7 8 19 20 21 10 144 9
6 24 124 125 153 22 23
8 25 26 13 12 11 124 24 127
7 26 27 28 29 168 14 13
6 32 146 147 17 30 31
7 18 33 148 149 152 20 19
5 20 152 153 125 21
7 22 37 163 174 175 40 23
5 24 23 40 126 127
5 26 25 192 193 27
7 28 27 193 170 171 47 173
9 34 148 33 146 32 186 48 49 50
5 128 129 52 36 35
6 36 52 53 162 163 37
6 38 54 55 139 130 131
7 40 175 132 133 59 41 126
6 42 41 59 196 197 43
7 44 43 197 184 185 195 45
8 49 64 65 177 66 134 51 50
7 51 134 135 136 53 52 129
6 53 136 137 55 54 162
8 55 137 70 165 71 233 138 139
7 57 56 140 231 141 142 58
7 59 133 58 142 143 60 196
6 61 60 143 77 198 199
5 65 80 81 176 177
6 67 200 201 208 69 68
7 69 208 209 216 164 165 70
5 71 225 264 265 233
8 73 72 236 291 333 237 241 215
5 93 210 211 91 92
8 77 76 210 93 189 154 155 198
5 1 96 97 6 2
5 6 97 98 16 7
5 178 179 99 30 17
4 186 187 101 48
5 48 101 102 64 49
5 64 102 103 80 65
6 104 105 83 82 176 81
4 191 83 105 190
5 164 216 217 120 121
5 254 255 122 123 214
5 90 109 110 92 91
5 188 189 93 92 110
5 95 112 113 79 78
5 79 113 114 63 62
5 185 63 114 194 195
4 116 172 173 47
5 168 169 118 15 14
5 156 157 119 0 5
5 0 119 180 181 160
4 100 31 30 99
4 104 81 80 103
5 284 248 249 292 293
4 112 95 94 111
5 183 116 47 171 182
6 120 204 205 298 224 121
5 122 242 243 282 123
5 124 11 10 21 125
6 126 41 42 192 25 127
5 128 34 50 51 129
6 130 203 56 57 39 131
5 132 39 57 58 133
5 134 66 67 68 135
6 136 135 68 69 70 137
8 138 207 167 247 202 203 130 139
5 140 73 215 230 231
6 142 141 75 76 77 143
5 144 10 11 12 145
4 146 33 18 147
5 148 34 128 35 149
7 150 221 226 227 74 151 240
7 152 149 35 36 37 22 153
5 154 94 95 78 155
4 156 15 118 157
5 87 107 222 223 266
6 160 181 1 2 3 161
5 162 54 38 174 163
6 164 121 224 225 71 165
6 166 273 317 276 336 337
4 168 29 117 169
6 170 44 45 46 182 171
5 172 117 29 28 173
6 174 38 131 39 132 175
6 176 82 200 67 66 177
4 178 16 98 179
4 180 96 1 181
4 182 46 115 183
6 184 61 199 62 63 185
5 186 32 31 100 187
5 188 111 94 154 189
5 190 106 85 84 191
6 192 42 43 44 170 193
5 194 115 46 45 195
5 196 60 61 184 197
6 198 155 78 79 62 199
6 200 82 83 191 84 201
6 202 72 73 140 56 203
4 204 234 235 205
6 206 261 87 266 267 245
5 208 201 84 85 209
6 210 76 75 74 227 211
6 239 246 247 167 213 274
6 214 123 282 283 259 281
5 216 209 85 106 217
5 218 89 88 108 219
5 220 109 90 226 221
5 222 322 323 320 223
5 224 298 299 264 225
5 226 90 91 211 227
5 228 288 289 229 268
6 230 151 74 75 141 231
7 232 229 289 207 138 233 265
5 234 278 279 86 235
7 236 212 270 302 252 290 291
6 253 248 284 308 309 335
6 240 151 230 215 241 258
5 242 220 221 150 243
6 244 277 312 313 307 269
6 246 212 236 72 202 247
5 248 253 300 301 249
7 304 294 295 271 239 274 275
6 252 302 303 330 331 315
4 254 218 219 255
5 256 280 281 259 257
6 258 241 237 257 259 283
4 260 107 87 261
5 286 287 318 319 238
7 264 299 296 297 306 232 265
5 266 223 320 321 267
6 268 229 232 306 307 313
5 270 212 246 239 271
4 272 316 317 273
6 274 213 288 228 251 275
7 276 158 250 328 326 327 336
5 278 260 261 206 279
6 280 89 218 254 214 281
6 282 243 150 240 258 283
7 284 293 339 310 311 285 308
5 286 250 158 159 287
5 288 213 167 207 289
6 290 285 311 332 333 291
4 292 338 339 293
7 294 326 328 329 330 303 295
6 296 86 279 206 245 297
6 298 205 235 86 296 299
4 300 262 263 301
5 302 270 271 295 303
6 304 275 251 312 277 305
7 306 297 245 267 321 269 307
6 308 285 290 252 315 309
7 310 88 89 280 256 332 311
5 312 251 228 268 313
6 314 334 335 309 315 331
5 316 159 158 276 317
6 318 263 262 334 314 319
8 320 323 166 337 325 244 269 321
5 322 272 273 166 323
5 324 305 277 244 325
6 326 294 304 305 324 327
5 328 250 286 238 329
6 330 329 238 319 314 331
5 332 256 257 237 333
5 334 262 300 253 335
5 336 327 324 325 337
5 338 108 88 310 339
CELL_TYPES 171
7
7
7
7
7
7
7
7
7
7
7
7
7
7
7
7
7
7
7
7
7
7
7
7
7
7
7
7
7
7
7
7
7
7
7
7
7
7
7
7
7
7
7
7
7
7
7
7
7
7
7
7
7
7
7
7
7
7
7
7
7
7
7
7
7
7
7
7
7
7
7
7
7
7
7
7
7
7
7
7
7
7
7
7
7
7
7
7
7
7
7
7
7
7
7
7
7
7
7
7
7
7
7
7
7
7
7
7
7
7
7
7
7
7
7
7
7
7
7
7
7
7
7
7
7
7
7
7
7
7
7
7
7
7
7
7
7
7
7
7
7
7
7
7
7
7
7
7
7
7
7
7
7
7
7
7
7
7
7
7
7
7
7
7
7
7
7
7
7
7
7
CELL_DATA 171
SCALARS cell_division_count float
LOOKUP_TABLE default
1
0
1
0
0
0
1
0
0
1
1
1
1
1
1
1
0
1
1
1
1
1
1
0
1
1
1
1
1
1
1
1
2
4
3
1
1
0
0
1
1
0
0
0
1
2
3
0
1
0
0
1
1
1
1
1
0
0
3
0
1
2
3
1
1
1
1
1
1
1
2
2
1
1
1
1
2
1
1
1
2
1
1
2
7
1
1
1
1
1
1
1
1
1
1
1
1
1
1
1
1
1
2
3
5
2
1
3
5
2
2
2
4
3
2
4
2
3
5
5
6
3
3
6
3
4
6
8
3
5
4
4
5
5
6
6
5
4
5
7
5
5
5
6
4
4
6
4
7
5
3
4
6
6
6
6
6
6
8
4
5
6
4
6
7
7
8
6
8
7
4
SCALARS cell_time float
LOOKUP_TABLE default
781
2.22229e+13
801
4.48239e+13
2.67348e+11
1.25633e+10
811
2.68223e+09
9.19769e+11
801
801
791
761
811
731
771
1.22679e+06
811
781
811
811
711
751
24593.4
811
811
811
811
811
701
761
701
661
401
551
651
791
1.00108e+18
2.94533e+15
761
751
105893
2155.76
867.338
741
641
441
858.006
751
3509.01
1126.18
731
771
781
791
761
1.12104e+13
21976.3
231
2847.96
761
681
501
811
811
811
811
811
811
811
691
571
811
801
801
801
631
791
791
791
641
781
781
641
1
781
771
771
761
761
761
761
761
751
751
751
741
731
731
711
701
701
691
561
381
661
651
501
281
641
641
641
111
221
631
251
571
561
291
251
141
521
501
131
501
221
231
61
441
291
421
421
121
231
121
151
351
131
321
91
291
291
281
141
271
251
21
1
91
231
221
221
221
211
151
141
141
131
11
131
121
121
111
101
91
91
61
21
11
1
1
SCALARS cell_area float
LOOKUP_TABLE default
3.24529
3.3025
3.29344
3.35988
3.35318
3.34335
3.32254
3.37864
3.35082
3.28127
3.33673
3.28628
3.37337
3.31453
3.30705
3.33237
3.40287
3.28232
3.33265
3.37136
3.37942
3.33775
3.34117
3.37167
3.35243
3.36103
3.41311
3.38314
3.38012
3.32625
3.25254
3.30073
3.3385
3.30652
3.39762
3.2532
3.35079
3.259
3.26801
3.2554
3.24688
3.28786
3.27009
3.29005
3.22909
3.30318
3.27295
3.27354
3.26998
3.25912
3.27834
3.28325
3.22449
3.26473
3.25148
3.24794
3.21565
3.22437
3.28645
3.20545
3.2547
3.31622
3.28669
3.28054
3.33597
3.29162
3.36787
3.33449
3.28429
3.34967
3.40854
3.32186
3.3457
3.287
3.24387
3.27576
3.33014
3.34493
3.23904
3.22939
3.26633
3.26205
3.31869
3.31383
3.32236
3.23031
3.30011
3.26024
3.35469
3.28969
3.23157
3.20903
3.22413
3.30606
3.26079
3.25774
3.26785
3.32511
3.27271
3.29853
3.29354
3.27188
3.36068
3.24642
3.27302
3.25569
3.31995
3.32963
3.27995
3.28474
3.27843
3.2828
3.28372
3.27397
3.25264
3.26817
3.33595
3.36514
3.27562
3.35331
3.27674
3.32736
3.29157
3.29464
3.35029
3.26847
3.33205
3.29928
3.22601
3.2488
3.30171
3.22279
3.29353
3.33633
3.25642
3.30748
3.291
3.24759
3.29907
3.29307
3.27014
3.27012
3.30406
3.29794
3.28757
3.3014
3.31093
3.29099
3.3313
3.29557
3.28952
3.21949
3.28085
3.29088
3.33152
3.30169
3.31746
3.2524
3.27778
3.28532
3.30995
3.3185
3.28748
3.26689
3.30243
3.25767
3.28852
3.27339
3.23041
151
0
SCALARS cell_perimeter float
LOOKUP_TABLE default
6.9207
6.89582
7.03584
7.08043
7.04569
6.86836
7.04978
7.34713
6.87834
6.99149
7.34706
6.97351
6.8593
7.11412
6.9733
6.75385
7.11658
6.95441
7.00912
7.27967
6.91121
7.07387
7.10563
7.30777
7.37071
6.86918
8.05167
6.90596
6.81993
6.97878
6.96463
6.87626
8.11377
7.01948
6.93167
7.12691
7.52125
7.42891
7.70192
7.52241
8.10786
8.38863
7.93733
7.51899
7.32544
8.2748
7.16054
7.22475
7.75044
7.43978
7.77121
8.06387
7.66859
7.9528
7.60285
7.17011
7.36245
7.33369
7.26745
7.2888
7.59602
8.03079
7.43378
7.03649
6.97072
7.12813
6.9874
6.97445
7.05786
6.89042
8.07527
6.96894
7.03354
7.14544
7.2681
7.15653
7.62412
7.10385
6.9438
7.78878
7.14336
6.78048
7.02335
8.01711
6.81787
7.8604
6.8061
7.84306
6.94833
6.969
7.68703
7.29469
7.53987
6.98691
7.79332
7.69065
7.20547
6.84688
7.94697
7.03641
7.05172
6.85196
7.17502
7.40288
6.8694
6.96874
6.80938
7.06596
6.93678
7.92737
7.31607
7.70455
7.25561
7.11874
7.15629
6.96408
6.98539
7.85237
7.26728
7.08793
6.90213
7.06548
7.80105
6.87133
7.25626
7.12044
7.18706
7.02345
7.2859
6.88456
7.1587
7.28589
7.2276
7.28952
7.01312
7.13709
6.93881
7.35505
6.83241
7.01734
7.23153
6.79424
7.27485
7.11013
7.16493
7.08733
7.38537
7.41916
6.86345
6.93638
6.93577
7.3686
7.01192
6.85096
6.93084
6.91361
7.11205
6.88794
7.05407
7.25539
7.4506
7.08609
7.32863
6.9124
7.05812
7.06953
7.09787
7.25227
6.93412
103
0
SCALARS cell_frequency_modifier float
LOOKUP_TABLE default
5.72645e+16
1.17989e+13
3.96812e+12
6.3162e+12
5.44935e+11
2.78855e+10
1.9881e+07
1.61912e+09
8.52992e+11
4.21674e+11
8.3578e+08
8.70346e+08
182299
6.68905e+06
6.16077e+09
1.01663e+11
2.23189e+08
3.58754e+06
68504.3
589.954
159687
2.45122e+06
5.767e+07
2.07032e+06
46441.3
2264.69
183.563
756.67
27024.9
80144.7
2.87342e+08
5587.29
229.791
54.6723
7.00415
322234
9635.78
2.13695e+18
2.01849e+17
4.83995e+15
9.3088e+11
6.69176e+08
8.33043e+09
333573
2.73893e+06
63.4553
376.234
7315.55
726045
1.19526e+09
3.41262e+08
1.62088e+09
4.40255e+15
2.49848e+17
6.63162e+18
10000
6.06453e+14
6.90937e+08
1.47693
1.03653e+08
2.30432e+14
16.1683
13.7338
8.31384e+09
2.72849e+07
7.27848e+06
512.582
7585.62
147905
1692.89
80.1294
101.326
3784.29
1.94337e+11
1.72151e+12
3.50629e+08
64.0995
4.23315e+06
3.05374e+07
3.54809e+18
100.376
9.46472e+16
12077.2
84.3217
0.475723
1.64933e+17
8.84284e+09
1.18942e+16
7754.63
210128
8.00119e+16
10000
2.92147e+13
6.91578e+06
1.01053e+13
5.08251e+06
239248
3.47201e+08
9.21994e+11
1.57603e+06
1.03677e+06
2.00018e+06
70.5172
880.327
38.9357
171028
953.84
11.9617
22.4866
541.498
3.81822
225.999
1.89874
257.058
43764.2
2395.89
296.597
30.9785
21.6427
1.57407
4.67447
36.7414
31.1122
1.77847
13.3699
120.975
1.3595
0.991032
155.597
450.889
11.5617
111.205
1.35862
4.85718
114.371
5.12478
7.94219
138.497
7.2913
0.893814
172.266
228.128
18.1229
0.928523
2.00296
48.8971
1.67899
1.00717
0.507279
2.6829
10.4555
164.872
6.19797
2.46409
1.04426
0.984614
0.88827
561.961
4.11049
2.28863
0.773135
0.547204
1.43582
125.823
0.774402
105.351
1.15899
86.6595
108.112
1
1
SCALARS cell_area_modifier float
LOOKUP_TABLE default
100
0.622468
0.860051
0.330401
0.340383
0.370208
0.467497
0.306437
0.347379
2.36364
0.387171
1.5157
0.309241
0.525661
0.569983
0.415744
0.293148
2.20915
0.410693
0.315005
0.303684
0.382786
0.374308
0.312096
0.343845
0.324065
0.28815
0.298323
0.30098
0.454913
100
0.685598
0.378499
0.57976
0.295713
100
0.350987
100
100
100
100
1.19435
100
1.04644
100
0.611212
112.667
10.2424
100
100
3.63441
1.95376
100
100
100
100
100
100
1.45064
100
100
0.517611
1.39095
2.74797
0.396249
0.906166
0.317968
0.405762
1.7513
0.358431
0.290628
0.480797
0.362272
1.33597
100
5.36508
0.437257
0.366197
100
100
100
100
0.494876
0.533965
0.474053
100
0.699793
100
0.333662
1.07987
100
100
100
0.589878
100
100
100
0.461119
100
0.746137
0.818402
100
0.327202
100
26
100
0.487734
0.442988
2.99115
1.66502
3.28155
2.07362
1.84699
7.86047
100
100
0.400949
0.320988
6.37736
0.336989
4.63014
0.448871
0.931129
0.799054
0.354669
100
0.420922
0.714588
100
100
0.646272
100
0.83871
0.391657
100
0.560531
0.957507
100
0.730022
0.882507
100
100
0.600355
0.76298
1.2381
0.671968
0.542536
0.985423
0.431673
0.7806
1.11551
100
2.54135
1.01502
0.42623
0.658869
0.509804
100
4.07229
1.58685
0.551387
0.502229
1.28517
100
0.634146
100
1.15358
14.6957
100
1
1
SCALARS cell_Gaussian_modifier float
LOOKUP_TABLE default
5.72645e+14
1.8955e+13
4.61382e+12
1.91168e+13
1.60095e+12
7.53237e+10
4.25264e+07
5.2837e+09
2.45551e+12
1.784e+11
2.15869e+09
5.74222e+08
589505
1.2725e+07
1.08087e+10
2.44532e+11
7.61352e+08
1.62395e+06
166802
1872.84
525832
6.40363e+06
1.54071e+08
6.63361e+06
135064
6988.37
637.04
2536.41
89789.9
176176
2.87342e+06
8149.51
607.11
94.3016
23.6856
3222.34
27453.4
2.13695e+16
2.01849e+15
4.83995e+13
9.3088e+09
5.60286e+08
8.33043e+07
318769
27389.3
103.819
3.33935
714.24
7260.45
1.19526e+07
9.38976e+07
8.29623e+08
4.40255e+13
2.49848e+15
6.63162e+16
100
6.06453e+12
6.90937e+06
1.01812
1.03653e+06
2.30432e+12
31.2364
9.87374
3.02545e+09
6.88579e+07
8.03216e+06
1612.06
18694.7
84454.7
4723.06
275.711
210.745
10446
1.45466e+11
1.72151e+10
6.5354e+07
146.594
1.15598e+07
305374
3.54809e+16
1.00376
9.46472e+14
24404.6
157.916
1.00352
1.64933e+15
1.26364e+10
1.18942e+14
23240.9
194586
8.00119e+14
100
2.92147e+11
1.17241e+07
1.01053e+11
50825.1
2392.48
7.52954e+08
9.21994e+09
2.11225e+06
1.26683e+06
20001.8
215.516
8.80327
1.49753
1710.28
1955.65
27.0022
7.51772
325.219
1.16354
108.988
1.02802
32.7026
437.642
23.9589
739.737
96.5101
3.39367
4.671
1.00957
81.8529
33.4134
2.22572
37.6968
1.20975
3.22982
1.38686
1.55597
4.50889
17.8898
1.11205
1.61989
12.4016
1.14371
9.14272
8.29466
1.38497
9.98778
1.01281
1.72266
2.28128
30.187
1.21697
1.61778
72.7669
3.0947
1.02206
1.17515
3.43698
9.37283
1.64872
2.43885
2.42764
2.44999
1.4944
1.74238
5.61961
1.00938
1.44224
1.40216
1.08955
1.11722
1.25823
1.22117
1.05351
1.00468
5.89695
1.08112
1
1
