# vtk DataFile Version 3.0
2D-vertex
ASCII
DATASET UNSTRUCTURED_GRID

POINTS 996 float
0.68066 -4.15129 0
3.12932 -3.91864 0
3.50836 -2.96622 0
2.47197 -1.9088 0
0.202626 -1.78512 0
-0.501513 -3.28067 0
4.03707 -2.92672 0
4.60177 -2.066 0
3.65382 -0.561382 0
2.61028 -0.886484 0
1.42392 0.360747 0
-0.268677 0.820389 0
-1.02068 -0.462241 0
-1.17648 -0.502327 0
-1.67825 -2.17587 0
-1.1604 -3.05503 0
5.1743 -2.21663 0
5.97724 -1.32621 0
4.12566 0.189389 0
3.85642 0.119675 0
2.96953 1.06916 0
1.90524 0.970954 0
1.21527 4.59336 0
0.364253 4.56017 0
-0.439291 2.67283 0
-1.63944 1.74728 0
-1.53713 -0.156882 0
-2.82633 -0.460208 0
-3.32901 -1.49765 0
-3.02073 -2.20522 0
7.04522 -1.30172 0
7.6589 -0.568753 0
7.46517 0.741119 0
5.23629 1.88485 0
5.69784 2.47057 0
3.33694 3.77859 0
2.5574 5.05933 0
1.67284 5.20687 0
0.720943 8.39288 0
-0.86253 8.41964 0
-0.516803 5.3616 0
-2.00572 4.40343 0
-3.04349 2.84339 0
-4.00006 2.86792 0
-4.72475 1.44949 0
-6.13149 1.12779 0
-6.40779 0.061176 0
-4.8791 -1.27876 0
7.88005 1.37577 0
7.52362 2.41046 0
6.76645 2.82058 0
5.99907 4.8752 0
3.63744 6.03864 0
3.55514 6.91478 0
2.09138 8.52481 0
2.61942 9.23625 0
-1.83866 9.79152 0
-1.73095 8.86772 0
-2.96287 7.51054 0
-2.61399 5.35908 0
-4.24688 5.64924 0
-5.61934 4.31696 0
-7.52394 2.8066 0
-7.37578 2.27345 0
8.43298 2.83503 0
8.43292 2.83753 0
6.91228 4.86734 0
7.327 6.07713 0
6.03429 7.33315 0
6.23318 8.02101 0
5.4178 9.032 0
5.13226 9.55094 0
-2.56833 12.0919 0
-2.83018 11.7391 0
-5.97865 8.77384 0
-5.30361 7.99806 0
-6.01649 6.61091 0
-5.93285 6.44937 0
-8.51286 3.30669 0
-8.35877 2.95388 0
9.95797 3.1724 0
10.2571 4.13472 0
9.43662 5.10351 0
10.593 5.5507 0
10.2557 7.07113 0
10.4288 7.78559 0
9.52039 12.4076 0
10.4835 14.5021 0
-9.5607 13.7617 0
-9.56046 13.7592 0
-9.94853 7.88769 0
-9.65205 7.37121 0
-9.98988 6.73243 0
-9.23901 5.6455 0
-10.0415 4.3804 0
-9.57062 3.40277 0
4.08122 -5.75642 0
5.27507 -5.18164 0
6.10387 -4.75653 0
8.41886 -3.1054 0
9.67594 -1.63691 0
10.9487 0.734479 0
11.0388 0.909716 0
11.7113 2.00327 0
12.4426 3.95441 0
12.6302 4.74893 0
12.7024 8.2777 0
13.0683 14.9894 0
-13.1616 14.187 0
-12.5448 7.8257 0
-12.4497 6.54671 0
-12.051 4.00433 0
-11.154 2.07368 0
-10.278 0.984637 0
-9.66089 0.269922 0
-8.72939 -1.04235 0
-6.75764 -3.14336 0
-4.6532 -4.50214 0
-2.52971 -5.45139 0
0.491313 -6.20067 0
12.52 9.75781 0
8.42446 9.8559 0
-12.8342 10.2887 0
-9.93362 11.1441 0
-0.181811 2.33792 0
1.10963 2.45985 0
-1.75409 4.37626 0
-0.970664 2.65584 0
4.58891 4.00356 0
4.97378 4.93368 0
0.397014 10.0019 0
0.189851 8.87833 0
-1.04551 6.70855 0
-2.22347 6.39582 0
5.99805 4.87748 0
5.11957 6.83952 0
4.13421 7.32206 0
4.11797 8.69333 0
2.07481 10.2648 0
2.07285 10.2632 0
-2.31791 10.0021 0
-3.87281 8.19873 0
-3.42188 7.5183 0
-4.37895 6.23414 0
1.55581 -0.28002 0
0.126542 -1.30528 0
6.63714 0.96789 0
5.57888 -0.595487 0
5.23424 1.88628 0
3.19701 2.65639 0
-8.82427 9.53879 0
-5.79971 9.47352 0
3.19451 2.65641 0
1.75235 3.30505 0
-9.25211 5.58362 0
-7.8363 4.99081 0
-0.532472 -3.29726 0
-0.890002 -5.98961 0
14.9342 30.6492 0
17.6294 30.5219 0
1.48548 -3.79058 0
1.56368 -2.33403 0
2.54996 7.27722 0
1.39433 6.23405 0
8.25806 9.37862 0
5.41795 9.03451 0
8.57911 20.1595 0
-0.0908012 11.9593 0
-2.4567 -2.45144 0
-3.10865 -5.2213 0
-4.13984 0.538614 0
-5.01283 -0.658303 0
-5.30812 -4.13415 0
-4.28268 -1.66374 0
0.464328 6.68832 0
-0.438928 6.24253 0
9.40946 4.9595 0
7.84005 4.13092 0
5.80385 -1.86298 0
7.56878 -3.81721 0
2.0476 -6.23631 0
2.03845 -4.21035 0
-5.96364 -0.553481 0
-7.52591 -2.46169 0
-5.2039 3.22434 0
-6.51297 1.95956 0
7.72704 0.878967 0
10.228 -0.738672 0
-12.314 5.3926 0
-9.26349 5.60435 0
12.8567 6.80018 0
10.7686 6.56575 0
-2.60314 1.91218 0
-3.49189 0.538671 0
-9.22937 -0.294679 0
-6.49194 1.39046 0
-3.4389 5.15409 0
-4.16903 3.15858 0
-6.67329 5.19075 0
-6.2431 4.39834 0
8.2905 6.26584 0
8.48546 6.75269 0
-0.887955 11.7897 0
-0.639427 10.6572 0
12.5244 9.76691 0
9.83551 11.0056 0
9.66667 13.2889 0
1.7489 10.8434 0
7.84784 8.01328 0
9.04285 8.74516 0
-7.16058 6.69744 0
-7.50752 7.44544 0
-2.34312 14.0937 0
0.629824 13.2842 0
-9.8717 11.6396 0
-4.03986 11.5625 0
9.04145 8.74725 0
12.5496 9.30408 0
-10.6632 12.7835 0
-13.2148 13.2081 0
-12.6032 8.80539 0
-9.08659 9.09381 0
12.4716 17.7266 0
9.87906 15.9831 0
8.0888 10.2951 0
5.95663 10.4442 0
-9.08664 9.09129 0
-7.20223 8.4196 0
2.06344 13.8264 0
3.82963 12.194 0
-4.32117 9.96137 0
-3.55384 9.32077 0
4.54191 11.95 0
3.6654 10.388 0
12.8356 11.4566 0
10.0313 11.5462 0
-2.95488 13.6599 0
-4.48118 12.5225 0
-13.593 25.9076 0
-0.105657 14.9045 0
-6.39101 10.0119 0
-4.34448 11.7667 0
-12.6855 9.52159 0
-9.27968 10.1286 0
5.56448 16.0463 0
7.78915 14.1021 0
-1.25997 13.6602 0
-0.720867 11.9937 0
-10.2762 17.0281 0
-13.4774 16.0103 0
17.0942 36.6022 0
1.97185 14.9324 0
-3.03528 16.3537 0
-10.2189 17.4262 0
-10.6175 12.1147 0
-13.0668 11.3199 0
-6.48963 13.8045 0
-5.92389 12.716 0
-6.26996 10.7666 0
-7.07591 11.6887 0
13.0403 13.1592 0
10.4434 13.8602 0
-11.1173 18.5188 0
-14.0966 18.4374 0
5.72898 11.5492 0
4.55097 11.9174 0
9.82394 15.1665 0
7.83564 14.674 0
3.63767 13.3542 0
6.22975 15.4008 0
-2.17052 15.5883 0
-0.693467 15.9126 0
13.8219 19.99 0
11.0848 21.1303 0
0.0144709 14.8812 0
0.930614 15.5915 0
11.8323 22.8663 0
3.56446 15.5008 0
12.9201 12.2914 0
9.80554 12.7775 0
-8.33563 13.2768 0
-8.35543 12.4068 0
-9.17762 10.4714 0
-7.07746 11.31 0
-9.86047 16.6479 0
-6.09609 15.6271 0
17.0507 41.8312 0
18.5918 42.8176 0
1.47245 13.1884 0
2.2953 11.6516 0
-3.93729 15.304 0
-3.81345 14.0725 0
-13.2942 15.2563 0
-10.0543 15.9731 0
-0.456546 17.4789 0
-0.518604 17.4348 0
7.3735 12.4557 0
6.93467 13.3668 0
8.31929 10.8059 0
7.24538 12.1828 0
-11.0558 17.9485 0
-13.7229 16.812 0
-2.74776 16.3556 0
-1.78577 17.8173 0
1.22088 16.7387 0
2.80973 16.7407 0
5.90296 13.523 0
5.60835 14.1467 0
-7.35784 16.9406 0
-7.1305 17.4103 0
-8.993 14.53 0
-6.30213 14.7739 0
3.54686 15.4564 0
4.34283 14.2123 0
-10.5222 20.4838 0
-3.90123 17.6 0
14.3347 20.9927 0
11.9735 22.0344 0
-16.552 24.9874 0
-14.1095 25.1143 0
7.9581 16.468 0
7.12852 15.5009 0
12.4603 17.9111 0
8.69099 19.3037 0
3.54626 18.0558 0
5.31484 18.7004 0
0.847214 19.4395 0
2.93289 18.5072 0
-1.09145 25.4501 0
-3.70825 24.0247 0
-3.26877 22.3539 0
-4.50218 19.5073 0
-6.11078 14.515 0
-4.00613 13.9561 0
-9.70519 19.4086 0
-8.15414 18.3577 0
7.32178 23.3458 0
6.63613 20.5012 0
-13.1748 14.5339 0
-9.33566 15.0281 0
-9.29071 15.1465 0
-7.09854 16.174 0
-0.453253 19.6746 0
-0.211067 19.3651 0
14.5628 29.8782 0
1.91335 22.8983 0
16.883 26.5191 0
14.7652 26.9248 0
-15.0857 20.3835 0
-12.3284 21.129 0
-5.30331 15.9954 0
-5.1446 17.2671 0
7.41168 17.3122 0
6.27185 17.2964 0
0.973265 17.1357 0
1.56938 18.2136 0
10.0481 15.6356 0
12.9416 15.969 0
12.4452 17.8289 0
7.95694 16.7897 0
-11.9588 22.1131 0
-4.48508 19.8737 0
-2.30081 18.8309 0
-3.54528 18.6826 0
3.35942 23.2528 0
3.9639 22.573 0
-5.73414 17.7694 0
-5.62627 18.9252 0
3.55897 17.501 0
5.57968 16.5978 0
-2.03812 22.2387 0
-0.474428 23.6378 0
1.91422 28.5156 0
12.1857 29.984 0
-14.2183 43.6086 0
-15.4565 44.1797 0
-7.0437 49.228 0
-2.70256 24.9441 0
-14.2701 18.7615 0
-12.086 20.714 0
-1.88712 19.5743 0
-3.55226 20.5381 0
-7.39189 20.4985 0
-5.89958 20.8465 0
12.9322 25.9511 0
11.6287 28.9564 0
4.50786 20.8903 0
6.11189 21.204 0
11.0517 21.2495 0
8.0897 22.1799 0
12.8327 18.5067 0
10.8172 20.7976 0
-13.659 24.2586 0
-3.83899 21.757 0
16.0996 24.6493 0
14.3121 26.046 0
1.95201 20.4928 0
3.12583 19.723 0
-15.7668 21.9002 0
-13.662 23.1609 0
-1.97489 27.0594 0
3.78042 24.4595 0
0.0884674 21.0892 0
1.58688 21.4809 0
-8.14656 18.4792 0
-6.83896 19.4456 0
7.73332 18.4722 0
6.23201 19.3122 0
-1.56475 21.4577 0
-2.27418 20.2936 0
12.4423 17.8392 0
7.86313 18.0811 0
-2.7718 24.5894 0
-1.51891 23.4026 0
-5.82851 21.457 0
-4.85492 22.0845 0
-4.65481 24.2284 0
-5.24403 23.4354 0
-14.1025 18.4455 0
-10.443 20.1038 0
5.1168 24.5024 0
5.70944 23.3503 0
-0.371611 29.6769 0
7.04436 50.1829 0
-8.19514 21.4297 0
-7.9075 22.5322 0
3.28369 51.7874 0
3.1455 53.3582 0
-10.3714 27.587 0
-8.25438 29.9013 0
9.19774 20.5983 0
7.96174 21.8524 0
14.818 21.9485 0
12.2852 23.2069 0
5.41507 22.7788 0
6.27537 21.6034 0
1.99812 21.1415 0
3.7 21.7127 0
3.17524 25.0753 0
5.13533 28.5995 0
4.31271 20.1414 0
5.41837 19.0727 0
1.48634 23.3143 0
1.76943 24.5899 0
12.5613 18.1243 0
9.1747 20.4702 0
-6.87847 35.8277 0
-4.82372 31.6357 0
-14.1433 27.4806 0
-16.8131 27.1432 0
-0.318418 21.5756 0
0.160784 22.9702 0
-7.31683 22.706 0
-7.01185 23.5002 0
-9.70663 19.7783 0
-7.39184 20.496 0
8.61791 25.6503 0
9.55597 23.8444 0
-16.3604 23.7109 0
-13.9047 23.9067 0
-7.45568 24.2381 0
-7.47105 25.8163 0
4.56483 32.6875 0
8.58156 31.25 0
-14.4324 29.4322 0
-10.0942 28.5772 0
8.47916 26.1581 0
5.60825 27.4831 0
2.30057 28.163 0
1.23971 26.3689 0
-4.91755 25.9883 0
-4.79179 26.0687 0
17.5358 40.4939 0
19.3209 40.6931 0
-0.214875 24.6624 0
1.11868 25.1333 0
-9.51627 23.3494 0
-9.66324 23.7765 0
5.87863 37.426 0
7.02161 44.26 0
-3.38532 25.7705 0
-2.84651 26.9166 0
14.532 27.3773 0
12.2616 27.7267 0
-11.6966 46.3261 0
-12.8889 47.651 0
-13.3525 44.1947 0
-8.04848 34.9839 0
9.80871 23.2896 0
9.35923 22.3686 0
-10.7232 25.753 0
-9.15048 24.3998 0
12.6672 25.4574 0
10.2564 25.2102 0
-1.99814 37.1817 0
-0.658392 31.2569 0
-9.83358 21.3238 0
-10.3415 22.3042 0
17.2112 27.9879 0
15.0835 28.2323 0
15.2522 22.7531 0
12.9717 24.259 0
16.4331 34.3564 0
12.9644 33.8433 0
-1.93317 29.6556 0
-1.57303 28.0218 0
-15.3391 34.9137 0
-17.2704 34.6069 0
3.27793 26.0447 0
2.11003 26.8017 0
7.8239 30.2885 0
7.04147 27.2384 0
5.69397 25.1068 0
4.72473 26.1313 0
-6.25188 29.0611 0
-5.66474 29.7251 0
7.80746 24.0671 0
7.61636 24.5652 0
5.91856 30.2433 0
6.23429 32.7978 0
-14.0814 27.6339 0
-11.0192 27.4055 0
17.5376 36.1158 0
19.5802 36.2317 0
-8.972 26.7572 0
-6.11205 28.4125 0
-13.7149 37.202 0
-10.427 33.5266 0
3.22962 32.0653 0
2.70944 32.407 0
-16.6835 26.1234 0
-13.8148 26.31 0
-16.9734 28.5208 0
-14.85 28.6778 0
-0.318592 40.8163 0
3.97018 43.7092 0
[...]
CELL_DATA 1494
SCALARS current_Length float
LOOKUP_TABLE default
0.881955
1.02507
1.48062
1.46758
1.65302
1.46817
0.530175
1.02943
1.77834
1.09301
1.03163
1.21643
1.7539
1.48682
0.485836
0.160872
1.74714
1.02034
0.0351285
0.592006
0.564079
0.832249
0.278125
0.710553
1.29927
1.06882
0.777186
1.06182
0.851668
2.05128
0.422445
0.531645
1.90691
0.499401
1.32441
1.15281
0.771817
0.825795
1.06826
0.955957
1.32412
0.858523
2.02683
0.00249761
1.27203
1.60311
1.49933
0.89678
0.765345
1.06427
0.719527
0.884365
1.19103
1.5817
1.87368
0.977702
0.956884
1.59283
1.2003
1.44306
1.10182
0.634709
0.709877
0.51983
1.09437
0.861098
1.12448
2.19326
1.734
1.45793
0.88
1.06852
1.37677
0.885989
1.16335
0.930061
0.977208
1.83291
1.10785
1.13282
0.849994
1.91275
0.336211
0.629046
0.553347
0.569483
1.00359
0.00250012
1.4228
0.00248835
1.2789
1.8024
0.707947
0.716036
1.29883
1.59387
0.00251539
1.6889
0.439347
0.523469
1.22251
1.02836
0.459072
1.55961
0.181903
0.599621
1.46027
0.384989
0.847722
1.56139
1.00775
1.18272
0.981808
1.23984
1.03013
1.61468
0.735135
1.00615
1.21551
0.467032
1.47847
0.00250683
1.38401
0.884297
0.595526
2.14582
0.722609
1.32107
2.32947
0.047878
1.08512
1.06211
2.06968
1.32501
2.57241
0.931466
2.70467
1.10874
2.26718
2.28241
1.63999
3.13493
0.197051
3.23993
1.28376
2.10734
2.19288
0.81636
2.18925
2.06372
2.32625
0.454686
2.63032
3.62594
1.05706
2.59702
1.28252
2.46683
1.16205
2.0444
2.06727
1.39765
2.74979
0.944262
3.03906
0.710625
2.57052
2.64681
1.75578
2.81793
0.622985
2.75999
1.39735
2.05811
1.5567
1.93305
2.0837
0.775971
2.12886
1.02709
0.0100808
0.552745
4.09676
0.781399
1.01196
3.02403
1.52002
1.68813
1.29718
0.25309
1.12816
1.8904
1.89203
1.02695
1.0066
1.22618
1.148
1.14255
1.72084
1.33766
1.21876
0.914285
1.03942
2.14974
1.09717
1.34323
1.37137
0.66411
1.69608
0.00250172
1.81093
1.4448
1.4113
0.816279
1.56874
1.60158
0.6542
1.42367
1.75897
1.67427
1.65163
1.88787
0.745862
1.13089
2.17793
0.516545
0.722193
2.47883
0.00249814
1.39578
1.58132
1.43905
1.81493
1.53491
0.673029
1.72578
2.71598
0.936233
1.81931
2.69821
0.694252
1.0029
1.45865
1.3292
1.03502
1.55682
0.505452
0.590189
2.86089
0.671752
0.631008
1.97279
0.615431
1.70377
2.84555
1.0825
0.956569
1.48146
0.751222
0.968019
2.67478
1.72377
0.764934
1.00727
0.146553
1.18451
1.77471
0.722084
1.7402
2.63325
2.08947
1.1292
2.02598
0.758336
1.86089
2.46616
1.16893
0.918133
1.82026
0.295938
1.05433
2.97852
1.41297
0.0236501
3.05789
1.48556
0.720114
2.10119
1.03008
0.64795
1.63597
0.899434
0.446005
3.21453
0.947639
1.03696
2.12489
1.18007
2.04309
0.901652
1.63236
1.79862
0.524441
1.70733
1.47902
1.15945
1.71815
0.574946
2.96047
0.964286
2.15166
2.04608
1.41268
1.68572
1.40132
1.14736
1.27383
0.82454
1.61494
1.50824
0.122365
0.499364
1.62561
0.768138
0.00251363
1.03769
3.55204
1.47238
0.980387
2.58673
0.981429
0.00252228
3.52837
0.105675
1.98122
3.12422
0.560455
1.1282
2.13738
1.48037
1.02087
2.00055
0.869675
1.62738
1.64352
1.55694
1.1665
0.999582
0.752904
1.59536
1.76724
0.83899
1.00149
2.80581
0.749962
1.45563
0.952578
0.563364
1.69727
1.5322
0.799689
0.366725
0.764312
0.720915
0.745148
3.45949
2.07307
2.08012
0.573726
1.16665
0.263752
1.75153
0.402162
0.838463
3.35909
0.942868
1.10977
1.47043
0.28753
0.98652
1.39479
0.670396
1.89401
2.57501
1.91995
1.46725
1.22675
2.16971
1.54352
0.378748
1.8304
0.643121
2.68981
0.946551
1.02803
2.98044
1.64347
0.0338816
1.2342
0.386453
0.926952
2.04841
1.17601
1.08806
1.26722
1.50459
1.16689
1.51222
1.12626
0.123622
2.96519
1.71149
1.23234
1.15924
0.566673
0.0477684
2.06738
0.876172
0.529919
3.15224
1.3164
1.69934
0.870182
0.357662
0.973326
2.26141
0.702111
0.877796
2.51969
1.4226
2.24614
1.82975
0.848064
0.975529
1.74322
0.874145
0.225082
1.23777
0.732195
1.12528
3.31831
1.45452
1.23603
0.0761592
2.14743
1.12729
1.01128
1.52931
0.301475
1.74618
0.573563
1.66773
2.8992
0.960169
1.32366
1.74988
1.18334
1.45153
1.58885
1.04347
1.39956
0.689767
0.809282
1.51754
0.521838
0.955303
0.321907
2.7019
1.6599
1.11068
1.47692
0.388099
1.44178
1.13968
1.07103
0.843836
2.5807
1.29077
0.967073
2.44579
0.321686
0.904337
1.27418
0.235929
0.863042
4.01834
0.555018
0.983498
1.88237
1.0609
0.761552
1.4228
1.2917
0.968241
1.6887
1.72761
1.08623
1.14523
0.80517
1.51026
2.17759
1.66906
2.26519
1.8147
1.61235
0.84815
1.70465
0.347118
0.604619
3.87086
0.126602
1.14193
2.42103
1.13693
1.90206
0.39306
0.855711
1.17849
2.37952
1.50501
0.509089
2.15636
1.81549
0.480633
2.85625
1.53102
1.28716
1.28152
0.891671
1.69907
1.13994
0.467835
1.39477
1.23179
0.519839
0.98776
2.91263
0.0106506
0.755178
4.60703
1.05124
0.366798
1.62851
0.8507
1.26324
1.25328
1.4889
0.899857
0.909676
0.774516
1.26586
1.16088
1.0674
0.551691
2.21338
1.25189
0.921492
1.07063
1.5617
0.526399
0.204039
0.909129
2.0601
1.36348
0.65928
0.36145
1.66804
0.357631
1.58066
2.92959
1.43738
0.825488
0.816863
0.00250903
1.71673
1.53236
1.38316
1.16885
1.74972
0.773892
0.876785
1.63441
1.21072
1.396
2.02906
1.78289
0.426945
3.05131
0.429244
1.25217
1.40579
2.02732
0.988698
2.26853
1.52641
1.23101
1.4037
0.960014
1.39378
2.4535
1.41173
1.27801
1.24152
1.51476
0.533199
1.54875
0.121655
1.31964
1.62601
1.26827
1.25581
1.7203
0.913245
1.30126
1.36326
0.0741178
0.412082
4.58557
1.09355
1.27446
1.72573
0.614623
1.06743
1.1583
0.672666
0.600251
0.987958
0.0100923
0.805077
4.01775
1.33707
0.642885
1.29554
1.56113
0.653556
1.39507
1.2298
0.615712
1.13939
1.6139
2.45286
1.57689
1.62697
0.140076
1.66029
1.6317
0.351619
1.76081
0.914216
0.740949
2.82814
1.4657
0.431614
1.45657
0.650346
1.1528
1.79519
0.863397
0.549426
0.974851
1.25848
0.386466
1.53775
0.59614
1.48723
1.30671
0.468923
0.130228
4.11977
0.272361
1.48044
1.81356
1.34125
1.33617
2.69107
0.634106
1.36948
1.47466
1.94296
1.76901
0.850753
0.369736
1.18695
2.42349
0.835716
0.869614
1.22291
1.9055
0.78434
2.46343
0.86104
1.83528
0.732559
1.13677
1.22417
0.558671
0.86228
1.02828
2.21836
0.274965
1.21242
1.27922
0.523068
1.22927
0.972009
0.85519
1.43774
0.149267
0.867959
1.60141
1.79622
1.057
0.847751
1.41424
1.80446
1.7025
0.451611
0.873654
1.34256
1.14696
1.07193
0.88323
1.26646
1.01744
0.726885
2.29714
1.20795
1.68869
1.78241
1.04552
0.987963
1.19032
0.609687
1.28347
1.02483
0.752289
0.807109
1.10956
0.560357
1.69661
1.91853
1.51227
1.56234
1.27652
1.64185
1.33177
1.10416
1.3531
0.983367
2.14169
1.81216
0.569105
2.73284
0.658155
1.4783
0.894417
1.38066
1.04301
0.74332
1.46454
1.79371
1.95548
0.575725
1.37454
1.39178
1.09317
1.45397
1.02097
1.99722
1.61496
0.150124
0.663452
1.2072
0.886358
1.76263
1.47666
0.533507
1.90587
1.7008
0.233891
0.165274
0.592666
2.05581
1.20107
2.07187
2.04591
1.40029
1.40173
1.58936
0.502512
1.37041
1.79427
1.47305
0.710848
0.622399
1.14357
0.459546
2.87475
1.38685
1.29643
2.12918
1.04658
0.764312
1.50382
1.55514
1.73344
0.37433
1.49453
1.52517
0.834993
0.962044
1.37206
1.90846
0.632485
1.25141
0.96591
0.00250131
1.70756
1.4869
0.624891
0.89183
1.61518
1.54799
1.03665
1.82414
1.80785
0.705533
1.40281
0.778467
0.46938
2.05209
0.181302
1.43602
1.81024
0.654739
1.62657
0.289657
2.37533
2.2387
0.872572
1.05722
1.15159
1.04647
0.645896
1.17543
1.54432
0.703214
0.535878
3.29777
1.18827
1.09596
0.736933
1.33964
2.19093
1.85926
0.264823
0.808485
2.87606
0.641815
1.24043
2.02985
1.73895
1.55822
1.0053
1.74047
1.67622
0.943124
0.683132
0.999045
1.67997
0.454599
1.20781
2.37635
0.060226
1.4894
0.462469
1.43582
0.645227
2.31563
1.02406
1.05581
1.11831
1.03496
1.24661
1.0353
0.647699
0.873023
0.582914
1.40125
0.40305
1.03253
1.21517
0.44538
2.63888
1.18384
0.648506
1.19668
1.04626
1.04288
1.96506
1.14151
1.44909
0.882533
0.735125
1.70042
1.82382
0.987534
1.21677
2.15831
0.822651
1.14341
2.05321
0.765605
1.29177
2.00556
0.840626
1.84488
2.3762
0.924494
1.55152
1.38652
0.935959
1.48176
0.205797
0.482988
0.753882
2.46725
1.43257
1.2833
0.650955
0.895891
1.06809
1.46067
1.80733
1.70906
1.19108
1.05406
1.30854
1.16469
0.272293
1.054
1.89967
1.18422
1.90492
1.30437
0.33908
0.882599
1.50392
0.286458
0.396014
0.682609
1.42899
0.644829
0.830074
1.34529
0.438382
1.92872
1.25931
1.10941
0.45629
2.2802
1.17054
1.27785
1.38106
0.8377
2.27
1.40158
1.29707
1.29943
1.16649
0.230433
0.830063
2.08023
1.51876
0.993208
0.900822
1.03785
1.24367
1.29057
1.66579
0.654286
1.26826
0.586321
0.818564
1.35091
0.882359
1.23243
1.02536
1.08063
1.92972
1.01049
1.44014
2.12236
2.10208
1.22761
2.03703
1.80494
1.41205
0.53469
1.27044
0.839737
1.02952
0.654071
0.804918
1.25618
2.01603
1.74436
0.102862
2.01493
2.14523
1.59996
1.20743
1.55591
1.03689
1.41555
1.14188
1.09347
1.72428
1.77798
0.940183
1.35831
0.613645
1.88569
1.37877
0.852982
2.1261
1.2211
0.0979613
3.04862
1.06743
1.66494
1.58989
1.40744
0.228969
1.28777
1.38622
1.41308
1.45697
0.966945
1.10066
0.890213
2.15619
1.18313
2.0516
1.0618
0.0452485
2.6036
0.715551
0.751909
0.698587
1.3867
0.291741
1.1976
0.272861
1.10344
2.19354
1.95533
1.32946
0.449844
0.660606
1.39356
1.66185
1.39092
0.997817
1.23802
0.922466
1.63018
1.73704
0.45288
1.17009
1.04361
0.873407
0.789838
1.12313
1.48532
1.32575
0.877279
1.02487
1.48678
1.68705
1.29602
0.976765
1.38938
1.02037
0.932528
1.25771
1.99659
1.02575
1.66959
0.602944
1.5885
1.67465
0.933144
0.617544
1.45145
1.89597
1.61463
1.31285
0.367632
0.845323
1.31087
1.46664
0.774043
0.687112
1.5496
1.54724
1.02255
1.22283
0.66897
1.29134
1.18713
1.97645
1.19803
0.851032
0.812363
1.10984
0.978567
1.61148
1.09651
0.991077
1.22931
0.658153
1.08584
1.28501
2.00757
0.651846
1.94456
1.73412
1.5877
1.12376
1.36533
0.467604
0.724232
1.48776
0.66192
1.0456
1.90476
0.723293
0.977953
2.83739
1.17513
1.36061
1.35273
1.88031
1.00348
1.55791
1.1455
0.444551
0.955306
1.52756
0.879703
0.665275
1.10458
0.982859
1.51507
1.65652
0.530625
1.9656
1.41747
0.585336
1.49227
0.711498
0.61933
1.1469
1.2369
1.28354
1.2574
1.24034
1.53908
1.12396
1.42891
0.928134
1.10272
0.799549
1.08532
1.51147
0.8318
0.595319
3.26485
1.09289
1.46885
1.90502
0.867992
0.616705
1.57737
2.02874
1.33243
1.15565
1.3914
1.32359
1.9553
1.23575
0.68444
0.684374
1.10003
1.51727
1.61002
1.59473
1.16045
0.823059
1.13476
0.733763
1.00733
1.5463
0.780837
1.92346
1.0662
0.396734
1.44793
0.670548
1.36598
0.871633
1.59147
1.04469
1.9286
1.43472
1.16965
1.02678
0.843274
1.00237
1.82276
0.958305
1.43315
2.01754
1.5994
0.649035
2.08387
1.30923
0.453025
2.9186
0.848002
0.450479
1.69701
1.02674
0.480682
1.68689
0.929048
1.5514
2.00113
0.764875
0.748873
0.356473
1.40706
1.59473
1.19512
1.23517
1.09345
1.42472
0.978436
0.874164
1.96259
1.21102
1.06257
1.02548
1.15218
0.870723
1.40599
2.04754
1.59558
1.32596
1.56105
0.937959
1.24186
1.58073
0.967361
1.08336
0.754565
0.588653
1.4997
1.53346
0.578273
0.594382
1.45131
0.944581
0.92887
1.46175
1.13419
0.875955
0.718741
0.34037
2.35906
0.556112
1.34586
1.82323
0.954355
0.9483
1.05531
1.817
1.59934
0.781135
0.463127
1.40932
1.3703
2.08455
1.44634
0.00250205
0.789647
2.05314
0.520326
0.486317
0.705548
1.72641
0.996239
0.687244
1.41898
1.62476
1.25207
0.850186
1.51789
1.72317
1.26807
0.809971
1.29801
1.18536
0.624593
1.21242
1.48629
0.505743
1.54482
0.479941
0.47475
1.91863
2.00879
1.49886
2.35815
1.79761
0.587927
1.36541
2.34183
1.85427
1.38019
1.4971
1.12934
1.20167
1.59148
0.598952
0.990272
1.27522
1.10073
0.817198
1.06105
0.736639
0.943903
1.86945
1.39322
1.00533
1.43512
1.34363
1.26753
1.16319
0.792642
1.43914
1.05935
1.19909
1.63908
1.34298
1.16839
1.38419
1.40721
0.361047
0.860267
1.70818
1.1403
0.799708
1.58249
1.33135
1.10439
1.59738
0.662973
0.869738
1.86252
1.88545
0.480929
1.30361
1.44957
1.49753
1.15563
1.092
1.01873
1.39266
1.09517
1.66199
1.91499
1.40423
0.695695
2.18008
0.996681
0.580321
1.75032
1.47151
1.30185
0.849621
1.2279
1.03945
1.42419
0.783891
0.798753
1.28176
1.09956
1.0121
2.05435
2.01736
2.17771
0.690025
0.494847
1.00009
1.00922
1.06229
1.29807
1.58005
0.898593
1.22274
1.32046
1.29193
0.552617
1.43681
0.630874
0.979861
1.54624
0.896713
0.842934
1.80077
0.396959
1.10987
1.63469
1.46013
1.10637
1.48536
1.27833
0.8059
2.41383
1.98489
1.89936
0.956263
1.14265
0.974062
1.84745
1.13475
1.61923
1.23331
1.43393
0.705379
2.06507
1.33401
0.902848
1.34068
0.653559
1.24408
2.12374
1.35599
1.17296
1.51494
1.02242
0.790059
2.30649
0.727392
1.17782
2.33108
0.939639
1.44285
1.12063
1.36028
1.1473
1.68953
1.37784
1.20288
1.64279
0.835561
0.644878
1.48744
1.34886
0.337942
1.55105
0.710019
0.90386
1.56592
1.70332
1.72146
1.75628
0.433946
0.939407
1.70575
3.29056
3.2763
3.28648
166
232
3.25014
3.31373
3.33099
3.34849
55
41
247

SCALARS edge_force float
LOOKUP_TABLE default
0.5
0.5
0.5
0.5
0.5
0.5
0.5
0.5
0.5
0.5
0.5
0.5
0.5
0.5
0.5
0.5
0.5
0.5
0.5
0.5
0.5
0.5
0.5
0.5
0.5
0.5
0.5
0.5
0.5
0.5
0.5
0.5
0.5
0.5
0.5
0.5
0.5
0.5
0.5
0.5
0.5
0.5
0.5
0.5
0.5
0.5
0.5
0.5
0.5
0.5
0.5
0.5
0.5
0.5
0.5
0.5
0.5
0.5
0.5
0.5
0.5
0.5
0.5
0.5
0.5
0.5
0.5
0.5
0.5
0.5
0.5
0.5
0.5
0.5
0.5
0.5
0.5
0.5
0.5
0.5
0.5
0.5
0.5
0.5
0.5
0.5
0.5
0.5
0.5
0.5
0.5
0.5
0.5
0.5
0.5
0.5
0.5
0.5
0.5
0.5
0.5
0.5
0.5
0.5
0.5
0.5
0.5
0.5
0.5
0.5
0.5
0.5
0.5
0.5
0.5
0.5
0.5
0.5
0.5
0.5
0.5
0.5
0.5
0.5
0.5
0.5
0.5
0.5
0.5
0.5
0.5
0.5
0.5
2
0.5
2
0.5
2
0.5
0.5
2
0.5
2
0.5
2
0.5
0.5
2
0.5
2
0.5
2
0.5
0.5
2
0.5
2
0.5
2
0.5
0.5
2
0.5
2
0.5
2
0.5
0.5
2
0.5
2
0.5
2
0.5
2
2
2
2
2
2
2
0.5
0.5
2
0.5
0.5
0.5
0.5
0.5
0.5
0.5
0.5
0.5
0.5
0.5
0.5
0.5
0.5
0.5
0.5
0.5
0.5
0.5
0.5
0.5
0.5
0.5
0.5
0.5
0.5
0.5
0.5
0.5
0.5
0.5
0.5
0.5
0.5
0.5
0.5
0.5
0.5
0.5
0.5
0.5
0.5
0.5
0.5
0.5
0.5
0.5
0.5
0.5
0.5
0.5
2
0.5
0.5
2
0.5
0.5
0.5
0.5
0.5
0.5
0.5
0.5
0.5
0.5
0.5
0.5
0.5
0.5
2
0.5
0.5
0.5
0.5
2
0.5
0.5
0.5
0.5
0.5
0.5
0.5
0.5
0.5
2
0.5
2
0.5
0.5
0.5
2
0.5
0.5
0.5
0.5
0.5
2
0.5
2
0.5
0.5
2
0.5
0.5
0.5
0.5
0.5
2
0.5
0.5
0.5
0.5
0.5
0.5
0.5
0.5
0.5
0.5
0.5
0.5
0.5
0.5
2
0.5
0.5
0.5
0.5
0.5
0.5
0.5
0.5
0.5
0.5
0.5
0.5
0.5
0.5
0.5
0.5
0.5
0.5
2
0.5
0.5
2
0.5
2
0.5
0.5
2
0.5
0.5
0.5
0.5
0.5
0.5
0.5
0.5
0.5
0.5
0.5
0.5
0.5
0.5
0.5
0.5
0.5
2
0.5
0.5
0.5
0.5
0.5
0.5
0.5
0.5
0.5
0.5
0.5
2
0.5
0.5
0.5
0.5
0.5
0.5
0.5
0.5
0.5
2
0.5
0.5
0.5
0.5
0.5
0.5
0.5
0.5
2
0.5
0.5
0.5
0.5
0.5
0.5
0.5
2
0.5
0.5
0.5
2
0.5
0.5
0.5
0.5
0.5
0.5
0.5
0.5
0.5
0.5
0.5
0.5
0.5
2
0.5
0.5
0.5
0.5
0.5
0.5
0.5
0.5
2
0.5
0.5
0.5
0.5
0.5
0.5
0.5
0.5
0.5
0.5
0.5
0.5
2
0.5
0.5
0.5
0.5
0.5
0.5
0.5
2
0.5
0.5
0.5
0.5
0.5
0.5
0.5
0.5
0.5
0.5
0.5
0.5
2
0.5
0.5
0.5
0.5
0.5
0.5
0.5
0.5
0.5
0.5
0.5
0.5
0.5
0.5
0.5
0.5
0.5
0.5
0.5
0.5
0.5
0.5
2
0.5
0.5
2
0.5
0.5
0.5
0.5
0.5
2
0.5
0.5
0.5
0.5
0.5
0.5
0.5
0.5
0.5
0.5
0.5
0.5
0.5
0.5
0.5
0.5
0.5
0.5
0.5
0.5
0.5
0.5
0.5
2
0.5
0.5
0.5
0.5
0.5
0.5
0.5
0.5
0.5
0.5
0.5
2
0.5
0.5
2
0.5
0.5
0.5
0.5
0.5
0.5
0.5
0.5
0.5
0.5
0.5
0.5
2
0.5
2
0.5
0.5
0.5
0.5
0.5
0.5
0.5
0.5
0.5
0.5
0.5
0.5
0.5
0.5
0.5
0.5
0.5
0.5
0.5
0.5
0.5
0.5
0.5
0.5
2
0.5
0.5
0.5
0.5
2
0.5
0.5
0.5
0.5
0.5
0.5
0.5
0.5
0.5
0.5
0.5
0.5
0.5
0.5
0.5
0.5
0.5
2
0.5
0.5
0.5
0.5
0.5
2
0.5
0.5
0.5
0.5
0.5
2
0.5
0.5
0.5
0.5
0.5
0.5
0.5
0.5
0.5
0.5
0.5
0.5
0.5
0.5
0.5
0.5
0.5
2
0.5
0.5
0.5
0.5
0.5
0.5
0.5
0.5
0.5
0.5
0.5
2
0.5
0.5
0.5
0.5
0.5
0.5
0.5
0.5
0.5
0.5
0.5
0.5
2
0.5
0.5
0.5
0.5
0.5
0.5
0.5
2
0.5
0.5
0.5
0.5
0.5
0.5
0.5
0.5
0.5
0.5
0.5
0.5
0.5
0.5
0.5
0.5
0.5
2
0.5
0.5
0.5
0.5
0.5
0.5
2
0.5
0.5
0.5
0.5
0.5
0.5
0.5
0.5
0.5
0.5
0.5
0.5
0.5
2
0.5
0.5
0.5
0.5
0.5
0.5
0.5
0.5
0.5
0.5
0.5
0.5
0.5
0.5
0.5
0.5
0.5
0.5
0.5
0.5
0.5
2
0.5
0.5
0.5
0.5
0.5
0.5
0.5
0.5
0.5
0.5
0.5
0.5
0.5
0.5
0.5
0.5
0.5
2
0.5
0.5
0.5
0.5
0.5
0.5
0.5
0.5
0.5
0.5
0.5
0.5
0.5
0.5
0.5
0.5
0.5
0.5
0.5
2
0.5
0.5
2
0.5
0.5
0.5
0.5
0.5
0.5
0.5
0.5
0.5
2
0.5
0.5
0.5
0.5
0.5
0.5
0.5
0.5
0.5
0.5
0.5
0.5
0.5
0.5
0.5
0.5
0.5
0.5
0.5
0.5
0.5
0.5
0.5
2
0.5
0.5
0.5
0.5
0.5
0.5
0.5
0.5
0.5
0.5
2
0.5
0.5
2
0.5
0.5
0.5
0.5
0.5
0.5
0.5
0.5
0.5
0.5
0.5
0.5
0.5
0.5
0.5
0.5
0.5
0.5
0.5
0.5
0.5
0.5
0.5
2
0.5
0.5
0.5
0.5
0.5
0.5
0.5
0.5
0.5
0.5
0.5
0.5
0.5
0.5
0.5
0.5
0.5
0.5
0.5
0.5
0.5
0.5
0.5
2
0.5
0.5
0.5
0.5
0.5
0.5
2
0.5
2
0.5
0.5
0.5
0.5
0.5
0.5
0.5
0.5
0.5
0.5
0.5
0.5
0.5
0.5
0.5
0.5
0.5
0.5
0.5
0.5
2
0.5
0.5
0.5
0.5
0.5
0.5
0.5
0.5
0.5
0.5
0.5
0.5
0.5
0.5
2
0.5
0.5
0.5
0.5
0.5
0.5
0.5
0.5
0.5
0.5
0.5
2
0.5
0.5
0.5
0.5
0.5
0.5
0.5
0.5
0.5
0.5
0.5
0.5
2
0.5
0.5
0.5
0.5
0.5
0.5
0.5
0.5
0.5
0.5
0.5
0.5
0.5
0.5
0.5
0.5
0.5
0.5
0.5
0.5
0.5
0.5
0.5
0.5
0.5
0.5
0.5
0.5
0.5
0.5
0.5
0.5
0.5
0.5
0.5
0.5
0.5
0.5
0.5
0.5
0.5
0.5
0.5
2
0.5
0.5
2
0.5
0.5
0.5
0.5
0.5
0.5
0.5
0.5
0.5
0.5
0.5
0.5
0.5
0.5
0.5
0.5
0.5
0.5
0.5
0.5
0.5
0.5
0.5
0.5
2
0.5
0.5
2
0.5
2
0.5
0.5
0.5
0.5
0.5
0.5
0.5
0.5
0.5
0.5
0.5
0.5
0.5
0.5
0.5
0.5
0.5
0.5
0.5
0.5
0.5
0.5
0.5
0.5
0.5
0.5
0.5
0.5
0.5
0.5
0.5
0.5
2
0.5
0.5
0.5
0.5
0.5
0.5
0.5
0.5
0.5
0.5
0.5
0.5
0.5
0.5
2
0.5
0.5
0.5
2
0.5
0.5
0.5
0.5
0.5
0.5
0.5
0.5
0.5
0.5
0.5
0.5
0.5
0.5
0.5
0.5
0.5
0.5
0.5
0.5
2
0.5
0.5
0.5
0.5
0.5
0.5
0.5
0.5
0.5
0.5
0.5
0.5
0.5
0.5
0.5
0.5
0.5
0.5
0.5
2
0.5
0.5
0.5
2
0.5
0.5
0.5
0.5
0.5
0.5
0.5
0.5
0.5
0.5
0.5
0.5
0.5
0.5
0.5
0.5
0.5
0.5
0.5
0.5
0.5
0.5
0.5
0.5
0.5
0.5
0.5
0.5
0.5
0.5
0.5
0.5
2
0.5
0.5
0.5
0.5
0.5
0.5
0.5
0.5
0.5
0.5
0.5
0.5
0.5
2
0.5
0.5
0.5
0.5
0.5
2
0.5
0.5
0.5
0.5
0.5
0.5
0.5
0.5
0.5
0.5
0.5
2
0.5
0.5
0.5
0.5
0.5
0.5
0.5
0.5
0.5
0.5
0.5
0.5
0.5
0.5
0.5
0.5
0.5
0.5
0.5
0.5
2
0.5
0.5
0.5
0.5
0.5
0.5
0.5
0.5
0.5
0.5
0.5
2
0.5
0.5
0.5
0.5
0.5
0.5
0.5
0.5
0.5
0.5
0.5
0.5
0.5
0.5
2
0.5
0.5
0.5
0.5
0.5
0.5
0.5
0.5
0.5
0.5
0.5
0.5
0.5
0.5
0.5
0.5
0.5
0.5
2
0.5
2
0.5
0.5
2
0.5
0.5
0.5
0.5
0.5
0.5
0.5
0.5
0.5
2
0.5
0.5
0.5
0.5
0.5
0.5
0.5
0.5
0.5
0.5
0.5
0.5
0.5
0.5
0.5
0.5
0.5
0.5
0.5
0.5
0.5
0.5
0.5
0.5
0.5
0.5
0.5
0.5
0.5
0.5
0.5
0.5
0.5
0.5
0.5
0.5
0.5
0.5
0.5
0.5
0.5
0.5
0.5
0.5
0.5
0.5
0.5
0.5
0.5
0.5
0.5
0.5
0.5
0.5
0.5
0.5
0.5
0.5
0.5
0.5
0.5
0.5
0.5
0.5
0.5
0.5
0.5
0.5
0.5
0.5
0.5
0.5
0.5
0.5
0.5
0.5
0.5
0.5
0.5
0.5
0.5
0.5
0.5
2
0.5
0.5
2
0.5
0.5
2
0.5
2
0.5
0.5
0.5
0.5
0.5
0.5
0.5
0.5
0.5
0.5
0.5
0.5
0.5
0.5
0.5
0.5
0.5
0.5
0.5
0.5
0.5
0.5
0.5
0.5
0.5
0.5
0.5
0.5
0.5
0.5
0.5
0.5
0.5
0.5
0.5
0.5
0.5
0.5
0.5
0.5
0.5
0.5
0.5
0.5
0.5
0.5
0.5
0.5
0.5
0.5
0.5
2
0.5
2
0.5
0.5
0.5
0.5
0.5
0.5
0.5
0.5
0.5
0.5
0.5
0.5
0.5
0.5
2
0.5
0.5
0.5
0.5
0.5
0.5
0.5
0.5
0.5
0.5
0.5
0.5
0.5
0.5
0.5
0.5
0.5
0.5
0.5
0.5
0.5
0.5
0.5
0.5
0.5
0.5
0.5
0.5
0.5
2
0.5
0.5
0.5
0.5
0.5
0.5
0.5
0.5
0.5
0.5
0.5
0.5
0.5
0.5
0.5
0.5
0.5
0.5
0.5
0.5
0.5
0.5
0.5
2
0.5
0.5
0.5
2
0.5
0.5
0.5
0.5
0.5
0.5
0.5
0.5
0.5
0.5
0.5
0.5
0.5
0.5
0.5
0.5
0.5
0.5
0.5
0.5
0.5
0.5
0.5
0.5
0.5
0
0
0
0
0
0
0
0
0
0
0
0
