# vtk DataFile Version 2.0
2D-vertex
ASCII
DATASET UNSTRUCTURED_GRID
POINTS 1010 float
0.671273 -4.18826 0
3.12045 -3.9567 0
3.4998 -3.00466 0
2.46353 -1.94671 0
0.193963 -1.82213 0
-0.510585 -3.31681 0
4.02868 -2.96534 0
4.59347 -2.10502 0
3.64553 -0.599883 0
2.60202 -0.924791 0
1.41489 0.323015 0
-0.278438 0.782893 0
-1.03002 -0.498443 0
-1.18519 -0.538283 0
-1.68749 -2.21069 0
-1.1698 -3.09054 0
5.1662 -2.25585 0
5.96933 -1.36573 0
4.11729 0.150103 0
3.84797 0.0803921 0
2.96039 1.0306 0
1.8956 0.932374 0
1.20483 4.55537 0
0.354015 4.52241 0
-0.44967 2.63653 0
-1.64864 1.71298 0
-1.54682 -0.191584 0
-2.83526 -0.494283 0
-3.33792 -1.53082 0
-3.0298 -2.23892 0
7.03727 -1.34136 0
7.65096 -0.608546 0
7.4574 0.701212 0
5.22746 1.84493 0
5.68851 2.43002 0
3.32691 3.73861 0
2.5466 5.02001 0
1.66141 5.16756 0
0.707039 8.35351 0
-0.876272 8.38401 0
-0.528585 5.32543 0
-2.01605 4.36911 0
-3.05335 2.81082 0
-4.00933 2.83555 0
-4.73396 1.41808 0
-6.13979 1.09699 0
-6.41644 0.0304366 0
-4.888 -1.31091 0
7.8721 1.33554 0
7.51556 2.36985 0
6.75737 2.78026 0
5.98909 4.8341 0
3.62562 5.99875 0
3.54317 6.87449 0
2.07724 8.4855 0
2.60361 9.1955 0
-1.8547 9.75813 0
-1.74697 8.83351 0
-2.97651 7.47942 0
-2.62529 5.32667 0
-4.25748 5.6183 0
-5.62874 4.28736 0
-7.5323 2.77745 0
-7.38396 2.24349 0
8.42457 2.79451 0
8.4245 2.79701 0
6.9024 4.82618 0
7.31657 6.03554 0
6.02223 7.29175 0
6.22024 7.97874 0
5.40237 8.98992 0
5.11572 9.50916 0
-2.5906 12.0584 0
-2.84916 11.7099 0
-5.99265 8.74699 0
-5.31567 7.96954 0
-6.02769 6.58318 0
-5.94314 6.41996 0
-8.52084 3.27788 0
-8.36655 2.92466 0
9.94961 3.13239 0
10.2483 4.09475 0
9.4271 5.06264 0
10.5834 5.5107 0
10.2446 7.03076 0
10.4169 7.74489 0
9.50297 12.3639 0
10.4653 14.4563 0
-9.58214 13.737 0
-9.58188 13.7346 0
-9.95936 7.85953 0
-9.66208 7.34269 0
-9.99927 6.7039 0
-9.24751 5.61717 0
-10.0495 4.35141 0
-9.57836 3.37383 0
4.07141 -5.79485 0
5.2657 -5.22062 0
6.09486 -4.79579 0
8.41064 -3.14525 0
9.668 -1.677 0
10.9409 0.694596 0
11.0312 0.870287 0
11.7033 1.96397 0
12.4339 3.91545 0
12.6211 4.71047 0
12.6904 8.23938 0
13.0509 14.9463 0
-13.1813 14.1579 0
-12.5551 7.79513 0
-12.4589 6.51632 0
-12.0589 3.97485 0
-11.1617 2.04443 0
-10.2859 0.95557 0
-9.66909 0.240774 0
-8.73794 -1.072 0
-6.76713 -3.17413 0
-4.66341 -4.5344 0
-2.54024 -5.48539 0
0.480766 -6.23697 0
12.507 9.7169 0
8.40807 9.81386 0
-12.8473 10.2582 0
-9.94955 11.117 0
-0.191455 2.30047 0
1.09981 2.42217 0
-1.76413 4.34179 0
-0.980781 2.61975 0
4.57891 3.96383 0
4.96334 4.89287 0
0.380938 9.96347 0
0.173609 8.84126 0
-1.05972 6.67391 0
-2.23546 6.36188 0
5.98807 4.83637 0
5.10821 6.79778 0
4.12082 7.28092 0
4.10455 8.65217 0
2.05683 10.2249 0
2.05487 10.2233 0
-2.33663 9.97009 0
-3.88733 8.17023 0
-3.43475 7.48734 0
-4.39014 6.20529 0
1.54678 -0.317729 0
0.117986 -1.3425 0
6.62889 0.928119 0
5.57099 -0.635041 0
5.22541 1.84636 0
3.18745 2.61676 0
-8.83704 9.51163 0
-5.81396 9.44707 0
3.18496 2.61678 0
1.742 3.26635 0
-9.26036 5.55486 0
-7.84437 4.96237 0
-0.541522 -3.33337 0
-0.900872 -6.02485 0
14.9367 30.5299 0
17.6639 30.3682 0
1.47642 -3.82789 0
1.55519 -2.37161 0
2.53641 7.2373 0
1.38255 6.1953 0
8.24208 9.3368 0
5.40251 8.99243 0
8.54877 20.1119 0
-0.115193 11.9227 0
-2.46559 -2.48564 0
-3.11939 -5.25472 0
-4.14868 0.506036 0
-5.0216 -0.689931 0
-5.31821 -4.16588 0
-4.29144 -1.69641 0
0.45036 6.65067 0
-0.450845 6.20601 0
9.40014 4.9192 0
7.83103 4.08964 0
5.7959 -1.90233 0
7.56021 -3.85695 0
2.03737 -6.27361 0
2.02926 -4.24796 0
-5.97223 -0.584769 0
-7.53509 -2.49196 0
-5.21296 3.19349 0
-6.52137 1.92957 0
7.71919 0.838986 0
10.2202 -0.778743 0
-12.3224 5.36251 0
-9.27197 5.576 0
12.8461 6.76195 0
10.7582 6.52574 0
-2.61258 1.87815 0
-3.50116 0.505845 0
-9.23769 -0.324043 0
-6.5004 1.35995 0
-3.4485 5.12228 0
-4.17902 3.1276 0
-6.68265 5.16229 0
-6.25174 4.3687 0
8.27993 6.22468 0
8.47426 6.71081 0
-0.908403 11.757 0
-0.65876 10.6212 0
12.5113 9.726 0
9.81945 10.963 0
9.64868 13.2432 0
1.72887 10.805 0
7.83547 7.97208 0
9.02863 8.70333 0
-7.17078 6.66938 0
-7.51866 7.41846 0
-2.37012 14.0624 0
0.604572 13.2453 0
-9.88815 11.6137 0
-4.05751 11.5341 0
9.02723 8.70542 0
12.5368 9.26455 0
-10.6815 12.7575 0
-13.2328 13.1771 0
-12.6144 8.7754 0
-9.09893 9.06621 0
12.4503 17.6827 0
9.85897 15.9336 0
8.07177 10.2533 0
5.93803 10.4014 0
-9.09897 9.06369 0
-7.21394 8.39276 0
2.03869 13.785 0
3.80661 12.1523 0
-4.3393 9.93395 0
-3.56904 9.29092 0
4.52111 11.9078 0
3.64613 10.3471 0
12.8212 11.4151 0
10.0145 11.5027 0
-2.97865 13.6311 0
-4.50279 12.4982 0
-13.6379 25.8964 0
-0.132451 14.8682 0
-6.40689 9.98636 0
-4.36515 11.7404 0
-12.6975 9.49084 0
-9.29392 10.1019 0
5.53717 16.0024 0
7.76785 14.0568 0
-1.28424 13.6276 0
-0.744315 11.9575 0
-10.307 17.0047 0
-13.501 15.9862 0
17.1976 36.3832 0
1.94717 14.8908 0
-3.06473 16.3242 0
-10.2498 17.4037 0
-10.6345 12.0876 0
-13.0814 11.2891 0
-6.51275 13.7809 0
-5.94516 12.6906 0
-6.28636 10.7411 0
-7.09434 11.6642 0
13.0245 13.1162 0
10.4258 13.8156 0
-11.1487 18.4985 0
-14.1235 18.4173 0
5.70992 11.5064 0
4.53034 11.8746 0
9.80488 15.1203 0
7.81374 14.6253 0
3.61463 13.3124 0
6.20507 15.3543 0
-2.19741 15.5553 0
-0.721419 15.879 0
13.8019 19.9135 0
11.0631 21.0673 0
-0.010297 14.8444 0
0.903441 15.5518 0
11.8161 22.7988 0
3.53814 15.4568 0
12.905 12.2488 0
9.78751 12.7334 0
-8.35596 13.2526 0
-8.37514 12.3815 0
-9.19229 10.4448 0
-7.09552 11.2847 0
-9.89011 16.6241 0
-6.12443 15.6042 0
17.3598 41.496 0
18.9802 42.4263 0
1.44915 13.1489 0
2.27267 11.6101 0
-3.96423 15.2784 0
-3.84039 14.0457 0
-13.3162 15.2297 0
-10.0832 15.9493 0
-0.485493 17.4416 0
-0.545934 17.3987 0
7.35338 12.411 0
6.91421 13.3221 0
8.30129 10.7626 0
7.22636 12.1403 0
-11.0868 17.9259 0
-13.7481 16.7904 0
-2.77634 16.3257 0
-1.81524 17.7832 0
1.1937 16.6978 0
2.78216 16.6991 0
5.87962 13.4787 0
5.58468 14.103 0
-7.38909 16.9187 0
-7.16265 17.3873 0
-9.01677 14.505 0
-6.32945 14.752 0
3.52141 15.4145 0
4.31839 14.1688 0
-10.559 20.4646 0
-3.93172 17.5739 0
14.317 20.9104 0
11.9533 21.9661 0
-16.5891 24.9737 0
-14.1515 25.1052 0
7.93076 16.4175 0
7.10463 15.454 0
12.4379 17.851 0
8.65861 19.2555 0
3.51769 18.0135 0
5.28583 18.6561 0
0.821045 19.3997 0
2.90501 18.4653 0
-1.09399 25.3952 0
-3.73326 23.9838 0
-3.301 22.3166 0
-4.53674 19.4805 0
-6.13531 14.4898 0
-4.02898 13.9318 0
-9.74024 19.3868 0
-8.18781 18.3353 0
7.30592 23.3028 0
6.60905 20.4581 0
-13.1951 14.5047 0
-9.36203 15.0052 0
-9.31768 15.1226 0
-7.12884 16.1514 0
-0.480099 19.6367 0
-0.237955 19.3264 0
14.5652 29.7795 0
1.89769 22.8567 0
16.8894 26.4038 0
14.7684 26.825 0
-15.1155 20.3686 0
-12.3627 21.1131 0
-5.33368 15.9716 0
-5.17495 17.2415 0
7.38226 17.2638 0
6.24261 17.2493 0
0.94519 17.0966 0
1.5418 18.1732 0
10.0278 15.588 0
12.9231 15.9258 0
12.4253 17.7797 0
7.92934 16.7395 0
-11.9929 22.0976 0
-4.51949 19.8441 0
-2.33017 18.799 0
-3.5765 18.6517 0
3.35196 23.21 0
3.94919 22.5353 0
-5.76718 17.7462 0
-5.65914 18.9001 0
3.53013 17.4575 0
5.55226 16.5533 0
-2.06481 22.1972 0
-0.487989 23.5881 0
1.98027 28.4481 0
12.1928 29.9064 0
-14.3047 43.8253 0
-15.5692 44.4347 0
-7.15242 49.7034 0
-2.72131 24.8921 0
-14.2997 18.7464 0
-12.1186 20.6949 0
-1.91785 19.5378 0
-3.58745 20.5056 0
-7.42911 20.4758 0
-5.93686 20.8216 0
12.9258 25.8697 0
11.63 28.8913 0
4.48407 20.8506 0
6.08808 21.1604 0
11.0304 21.187 0
8.06918 22.1331 0
12.8065 18.4343 0
10.7973 20.7397 0
-13.6975 24.2462 0
-3.87103 21.7233 0
16.0942 24.5415 0
14.312 25.9546 0
1.92833 20.4524 0
3.09954 19.682 0
-15.798 21.8858 0
-13.6967 23.1479 0
-1.96189 26.9938 0
3.77864 24.4249 0
0.0628419 21.0479 0
1.56856 21.4388 0
-8.18027 18.4571 0
-6.8753 19.4223 0
7.69918 18.4259 0
6.20156 19.2671 0
-1.59449 21.4169 0
-2.30397 20.2577 0
12.4224 17.79 0
7.83099 18.0279 0
-2.79051 24.5464 0
-1.54389 23.3545 0
-5.86515 21.4287 0
-4.89013 22.0544 0
-4.68815 24.1922 0
-5.27598 23.4042 0
-14.1294 18.4255 0
-10.4797 20.0848 0
5.11107 24.4648 0
5.69877 23.3138 0
-0.300184 29.5877 0
6.75975 50.4246 0
-8.23415 21.409 0
-7.94588 22.51 0
3.0853 51.9636 0
2.90065 53.5875 0
-10.4268 27.5693 0
-8.30089 29.8534 0
9.17204 20.547 0
7.93986 21.806 0
14.8029 21.8597 0
12.2691 23.1356 0
5.39962 22.7373 0
6.25415 21.5629 0
1.97565 21.1017 0
3.68185 21.6706 0
3.18711 25.0302 0
5.17051 28.5763 0
4.2867 20.0986 0
5.39005 19.0293 0
1.47804 23.2672 0
1.76462 24.544 0
12.5358 18.056 0
9.14913 20.4224 0
-6.67712 35.5383 0
-4.75965 31.4986 0
-14.1977 27.4766 0
-16.8565 27.1353 0
-0.341207 21.5327 0
0.140374 22.9236 0
-7.35412 22.683 0
-7.04972 23.4721 0
-9.74162 19.7584 0
-7.42904 20.4733 0
8.61568 25.6029 0
9.54144 23.7907 0
-16.3944 23.6959 0
-13.9414 23.8957 0
-7.49403 24.2131 0
-7.50956 25.7863 0
4.68795 32.6923 0
8.63225 31.2321 0
-14.4922 29.4307 0
-10.1499 28.5477 0
8.47878 26.1181 0
5.63966 27.4615 0
2.33849 28.1189 0
1.25011 26.31 0
-4.94698 25.9397 0
-4.81521 26.0227 0
17.7652 40.1843 0
19.601 40.3022 0
-0.225613 24.6079 0
1.12626 25.08 0
-9.55604 23.3302 0
-9.70373 23.7604 0
6.02924 37.5133 0
6.96043 44.2672 0
-3.3966 25.7151 0
-2.85568 26.8524 0
14.5361 27.2831 0
12.2627 27.6475 0
-11.8335 46.4431 0
-13.124 47.7886 0
-13.4322 44.39 0
-8.07308 34.7442 0
9.79206 23.233 0
9.339 22.3159 0
-10.7738 25.7388 0
-9.19443 24.3781 0
12.6593 25.3811 0
10.2482 25.1529 0
-1.74659 37.033 0
-0.553131 31.1863 0
-9.871 21.3038 0
-10.3803 22.2875 0
17.2267 27.8633 0
15.0883 28.1257 0
15.2394 22.6578 0
12.9618 24.1816 0
16.4949 34.1715 0
13.0028 33.7769 0
-1.87928 29.577 0
-1.55281 27.9578 0
-15.4046 34.9366 0
-17.3488 34.5865 0
3.2931 25.9983 0
2.14133 26.75 0
7.86152 30.2724 0
7.05964 27.2123 0
5.69735 25.0737 0
4.74332 26.1005 0
-6.27189 28.9818 0
-5.68139 29.6381 0
7.79567 24.0226 0
7.6067 24.5237 0
5.97611 30.2455 0
6.31815 32.8172 0
-14.1357 27.6306 0
-11.0739 27.3904 0
17.6361 35.876 0
19.7058 35.9409 0
-9.01709 26.7287 0
-6.14132 28.3598 0
-13.783 37.3011 0
-10.4977 33.493 0
3.33549 32.0687 0
2.87169 32.3741 0
-16.7237 26.1114 0
-13.8632 26.3038 0
-17.0208 28.5186 0
-14.9085 28.6781 0
-0.169244 40.8326 0
3.96857 43.7905 0
[...]
CELL_DATA 506
SCALARS cell_division_count float
LOOKUP_TABLE default
1
0
1
0
0
0
1
0
0
1
1
1
1
1
1
1
0
1
1
1
1
1
1
0
1
1
1
1
1
1
1
1
2
4
3
1
1
0
0
1
1
0
0
0
1
2
3
0
1
0
0
1
1
1
1
1
0
0
3
0
1
2
3
1
1
1
1
1
1
1
2
2
1
1
1
1
2
1
1
1
3
1
1
2
9
1
1
1
1
1
1
1
1
1
1
1
1
1
1
1
1
1
2
3
5
2
1
3
5
2
2
2
5
3
2
4
2
3
5
5
6
3
3
6
3
4
6
9
3
5
4
4
8
5
6
6
5
4
5
14
5
5
5
7
5
4
6
4
10
5
3
4
6
6
6
7
6
6
11
7
8
7
6
7
8
18
11
6
8
9
4
7
8
13
6
7
7
8
8
3
6
12
10
11
9
7
11
13
9
15
8
11
10
11
9
9
5
14
6
10
8
13
10
10
8
11
6
10
11
14
8
11
13
11
9
12
9
8
9
11
13
9
11
6
16
13
11
12
11
13
8
13
13
12
15
14
10
8
12
13
14
11
12
12
16
9
14
15
15
12
7
9
14
15
11
14
14
14
13
13
12
12
8
12
16
14
8
9
17
14
15
16
14
14
13
11
14
14
14
14
14
15
14
8
15
9
9
14
13
13
14
12
12
10
12
12
14
15
7
13
13
15
11
14
14
14
8
13
15
12
16
15
15
15
13
14
15
16
12
15
17
9
11
14
16
14
15
16
14
15
11
7
11
13
18
14
15
13
16
16
13
16
15
12
15
14
17
13
10
9
14
17
13
15
14
15
10
17
15
15
15
15
14
13
13
15
14
17
16
15
16
15
15
15
17
8
16
15
15
16
13
14
10
17
16
15
11
16
16
14
16
16
15
9
16
15
14
13
19
15
16
14
11
15
18
18
14
17
8
10
11
14
15
12
16
15
15
16
17
15
16
15
15
16
16
17
15
15
15
17
17
16
18
16
16
17
15
17
14
16
18
11
11
13
13
16
16
18
17
17
16
15
17
16
17
15
17
15
17
15
17
12
11
16
17
16
18
11
16
18
15
16
15
15
17
16
17
13
18
17
16
17
17
18
18
12
13
15
16
15
16
16
18
16
16
15
17
16
16
13
16
18
19
17
18
15
SCALARS cell_time float
LOOKUP_TABLE default
2381
2.22229e+13
2401
4.48239e+13
2.67348e+11
1.25633e+10
2411
2.68224e+09
9.19769e+11
2401
2401
2391
2361
2411
2331
2371
1.22839e+06
2411
2381
2411
2411
2311
2351
26193.4
2411
2411
2411
2411
2411
2301
2361
2301
2261
2001
2151
2251
2391
1.00108e+18
2.94533e+15
2361
2351
107493
3755.76
2467.34
2341
2241
2041
2458.01
2351
5109.01
2726.18
2331
2371
2381
2391
2361
1.12104e+13
23576.3
1831
4447.96
2361
2281
2101
2411
2411
2411
2411
2411
2411
2411
2291
2171
2411
2401
2401
2401
2231
2391
2391
2391
1531
2381
2381
2241
1161
2381
2371
2371
2361
2361
2361
2361
2361
2351
2351
2351
2341
2331
2331
2311
2301
2301
2291
2161
1981
2261
2251
2101
1881
2241
2241
2241
1531
1821
2231
1851
2171
2161
1891
1851
1741
2121
2101
1731
2101
1821
1831
1521
2041
1891
2021
2021
801
1831
1721
1751
1951
1731
1921
751
1891
1891
1881
1581
1011
1851
1621
1601
1251
1831
1821
1821
1821
1811
1751
1551
1741
1731
1091
1161
1081
1541
1131
1471
1541
71
1221
1621
1611
1161
1601
1581
1581
431
941
1411
1551
1271
1541
1531
1261
951
1401
1161
1481
1471
1101
891
581
91
1221
1271
1391
981
1161
961
1361
751
1341
1341
741
761
1311
1281
1271
1271
1261
1251
1231
771
1221
1211
491
1201
421
651
1161
941
1161
1161
881
1161
1151
1131
311
311
1101
1101
1091
871
1081
631
621
591
591
791
1021
241
1001
991
161
991
611
41
171
961
751
601
71
951
641
731
311
631
151
631
631
631
701
871
691
691
321
651
271
371
801
801
91
791
221
51
771
571
761
81
761
751
751
101
751
271
751
741
611
551
731
611
611
701
251
691
681
671
651
651
271
501
641
641
631
631
241
631
631
631
441
621
351
611
71
201
611
351
611
431
601
321
591
591
61
581
581
411
81
571
91
161
401
71
151
541
301
531
1
511
501
491
301
31
481
251
471
461
281
461
101
441
441
281
441
121
431
231
431
171
261
81
241
411
71
261
401
131
41
21
371
71
231
351
81
351
221
351
21
321
321
321
321
311
311
311
311
91
191
41
301
301
21
291
31
41
281
281
271
271
271
61
1
41
71
261
81
261
61
31
251
101
241
241
241
241
241
91
111
231
101
231
101
221
221
221
211
81
211
51
131
201
201
51
61
191
51
31
171
1
171
171
161
161
51
151
151
11
131
31
21
1
121
111
111
1
101
11
101
101
101
91
91
91
91
91
81
81
81
81
81
81
81
71
71
71
71
71
71
71
61
61
61
61
51
51
51
51
51
41
41
41
41
41
31
31
31
31
31
21
21
21
21
11
11
1
1
1
1
1
SCALARS cell_area float
LOOKUP_TABLE default
3.24158
3.29965
3.29299
3.35563
3.35092
3.34318
3.32627
3.37402
3.3483
3.28127
3.33619
3.28173
3.38598
3.31875
3.30545
3.32945
3.39796
3.28837
3.34594
3.39711
3.39162
3.339
3.33876
3.37131
3.35778
3.37539
3.43947
3.4018
3.39081
3.32888
3.24627
3.29622
3.35052
3.33626
3.44471
3.24912
3.34458
3.25231
3.26076
3.24824
3.2363
3.27739
3.26121
3.27781
3.21924
3.28344
3.25508
3.26234
3.25845
3.2476
3.26733
3.27293
3.21615
3.25684
3.24447
3.2419
3.20919
3.21642
3.26626
3.19552
3.24586
3.30541
3.26797
3.27988
3.33673
3.28425
3.39845
3.35126
3.27917
3.35611
3.4517
3.35113
3.35648
3.28635
3.24797
3.27417
3.34106
3.35081
3.2307
3.22179
3.21865
3.25824
3.33465
3.33051
3.36926
3.22231
3.29618
3.25195
3.36951
3.2868
3.22415
3.20344
3.21558
3.30334
3.25102
3.24396
3.25792
3.32358
3.26267
3.29973
3.28912
3.2626
3.40125
3.23111
3.29282
3.23936
3.32789
3.38471
3.29074
3.27814
3.25754
3.27117
3.27297
3.29248
3.24494
3.3158
3.35606
3.40459
3.25387
3.42502
3.30217
3.34874
3.27073
3.34754
3.40605
3.2605
3.44175
3.397
3.21505
3.27958
3.33444
3.20575
3.28552
3.37017
3.31438
3.35395
3.366
3.26248
3.36518
3.30746
3.24831
3.28076
3.31502
3.2736
3.23767
3.34784
3.40029
3.26862
3.37493
3.31315
3.29953
3.23224
3.37272
3.36081
3.38382
3.38706
3.33844
3.3083
3.35557
3.27312
3.25887
3.41121
3.28658
3.31964
3.36891
3.34314
3.36846
3.32825
3.29939
3.36501
3.27055
3.3253
3.43189
3.29108
3.27592
3.23047
3.3614
3.36866
3.39158
3.23824
3.29734
3.31071
3.43583
3.38954
3.3907
3.317
3.38582
3.40073
3.29928
3.27427
3.27579
3.41082
3.40334
3.28809
3.35639
3.27075
3.23546
3.29161
3.24041
3.34295
3.26054
3.33785
3.42018
3.35333
3.30199
3.39129
3.2884
3.34799
3.38501
3.36641
3.30902
3.39251
3.38965
3.35514
3.25792
3.31592
3.34336
3.27651
3.3731
3.37094
3.44472
3.35212
3.40028
3.27851
3.36974
3.2934
3.3983
3.32907
3.30493
3.36948
3.21982
3.3582
3.42905
3.26422
3.34557
3.41045
3.42681
3.28344
3.38964
3.38534
3.28688
3.36949
3.26854
3.31358
3.26351
3.33782
3.38276
3.29693
3.29477
3.31733
3.29473
3.24976
3.32209
3.3695
3.30189
3.38939
3.31221
3.34859
3.40056
3.33878
3.33779
3.30694
3.23817
3.36215
3.36535
3.39493
3.27578
3.2846
3.34664
3.36569
3.35192
3.31894
3.37726
3.38315
3.37821
3.30086
3.34237
3.33878
3.35681
3.3047
3.26436
3.3363
3.36234
3.2639
3.37703
3.25692
3.3002
3.29193
3.34169
3.3435
3.35075
3.30858
3.36075
3.28846
3.38315
3.35283
3.36504
3.38661
3.31296
3.38425
3.33142
3.37413
3.33985
3.34414
3.34291
3.32449
3.26191
3.39265
3.36801
3.30858
3.33293
3.3088
3.31045
3.33185
3.38587
3.29685
3.399
3.36799
3.35309
3.34566
3.31646
3.29091
3.29391
3.33412
3.3472
3.34517
3.32696
3.31352
3.37023
3.29713
3.31184
3.28313
3.25004
3.32449
3.35695
3.3656
3.34209
3.28603
3.36564
3.30645
3.31907
3.26478
3.28034
3.30151
3.30079
3.33983
3.3094
3.32565
3.24754
3.34136
3.41134
3.30428
3.32796
3.33234
3.30256
3.34535
3.30121
3.33782
3.33152
3.33819
3.27408
3.30014
3.35657
3.31374
3.28536
3.28921
3.32227
3.35832
3.35936
3.32838
3.34189
3.31507
3.3764
3.33403
3.30474
3.27926
3.36404
3.2812
3.35746
3.34964
3.30994
3.30098
3.30701
3.36394
3.31765
3.31653
3.28589
3.3513
3.33117
3.28565
3.35366
3.30334
3.30758
3.31642
3.28356
3.35528
3.30054
3.31207
3.36252
3.30865
3.31959
3.30792
3.31909
3.35798
3.3821
3.32466
3.32818
3.2773
3.29208
3.31138
3.30733
3.33471
3.34713
3.30343
3.37274
3.29613
3.31197
3.3266
3.31762
3.33413
3.29664
3.34228
3.33051
3.39044
3.34424
3.31704
3.32257
3.33144
3.32869
3.32644
3.31739
3.33316
3.32481
3.33385
3.33011
3.33495
3.30332
3.31624
3.30676
3.31269
3.31544
3.30097
3.23247
3.30824
3.30747
3.25166
3.32294
3.40902
3.31956
3.33735
3.31037
3.34767
3.28175
3.28063
3.35587
3.30073
3.29018
3.31079
3.33364
3.3246
3.33193
3.28709
3.31126
3.31799
3.32145
3.34958
3.36586
3.33734
3.29168
3.39843
3.27653
3.34694
3.30833
3.34265
3.30796
3.31348
3.29292
3.30209
3.27466
3.28543
3.35191
3.28075
3.33342
3.30075
3.30876
3.34831
3.30076
3.3208
3.27254
3.25886
3.34814
3.32563
3.35056
3.27054
3.29861
3.34442
3.28649
3.32804
3.2893
3.31136
3.33095
3
3.26054
3.35192
381
119
SCALARS cell_perimeter float
LOOKUP_TABLE default
6.92928
6.94335
6.96332
7.19886
7.12945
6.81998
7.07939
7.65538
6.93597
6.92676
7.39023
7.00343
6.7997
7.24573
7.04518
6.79495
7.17761
6.97026
6.92356
6.98351
6.94212
7.27343
7.24328
7.58527
7.60046
6.95786
7.98416
7.13612
6.90322
7.07081
6.94934
7.05301
8.18811
7.03401
7.102
7.34249
7.90296
7.52218
7.8297
7.6414
8.27338
8.66989
8.19502
7.76779
7.38426
9.61978
8.03795
7.66424
8.0558
7.66183
8.13383
8.45102
7.7868
8.07395
7.67423
7.2167
7.43864
7.39162
8.70972
7.32575
7.73082
9.71588
8.63242
7.03688
7.15294
7.24357
6.9022
7.08617
7.18508
6.86611
7.80157
7.07004
7.17059
7.07755
7.24039
7.21945
7.79182
7.27328
6.93633
7.87401
8.24536
6.79068
7.02079
7.86209
7.54754
7.98221
6.82347
7.98325
7.08276
6.99907
7.79996
7.31425
7.65547
7.13234
7.93538
7.97803
7.36842
6.94591
8.23149
7.19041
7.17219
6.94579
7.12086
8.0618
7.215
7.0339
6.85412
7.42152
7.31589
8.60658
8.66488
8.58858
10.1514
7.21678
7.24268
7.06069
6.91714
7.41345
8.26883
7.07543
7.66535
7.27944
8.96888
7.19185
7.25874
8.47682
7.17762
7.08394
7.72512
7.02668
7.28603
7.795
7.98098
7.34745
7.30233
7.0748
7.04635
8.01472
6.93117
7.26245
8.21527
6.91188
7.57802
7.57565
7.29398
7.22892
7.24789
9.16498
7.08723
7.33174
7.30343
8.11491
7.07673
7.16492
6.82582
6.84517
8.0188
7.0012
7.57602
7.90044
7.59339
6.85587
9.92985
7.33409
7.08772
6.86661
6.98088
7.17635
7.42837
7.16064
9.39781
7.87089
7.12106
7.44689
7.33591
8.07647
7.00194
7.09724
7.06587
7.98896
10.8669
6.92902
7.00061
7.08548
6.89085
7.35778
6.90662
6.91625
7.15966
6.99598
9.26155
7.01891
7.39507
7.2721
6.92641
7.17824
8.23488
7.25318
7.4445
6.97865
8.28166
7.03745
7.23011
7.06482
7.07874
6.8923
10.3799
7.05602
6.95638
6.95831
9.83895
6.928
7.02194
7.07712
7.36053
7.02619
7.61249
8.00473
7.03816
7.03418
7.00277
7.05683
7.02946
9.41806
7.23536
7.75918
7.08243
7.13
7.41921
7.13794
7.60502
7.17672
7.04282
7.26054
7.18931
6.93076
6.9886
7.19355
6.92267
7.09719
6.82379
6.94978
7.49278
7.369
6.9809
6.94562
6.8308
7.13681
6.95495
7.02214
7.61973
7.99839
6.84973
7.07185
7.2285
7.26743
7.15596
7.42847
6.90669
7.15957
7.32954
7.56101
7.33595
7.18627
7.18875
6.92224
7.86254
7.65971
7.07269
7.13581
6.93353
6.96564
6.95939
7.62829
6.9744
7.13947
7.02023
7.30551
7.36905
6.90903
7.39926
6.8628
6.96989
8.43857
6.80744
7.3344
8.17412
7.34312
7.13412
7.05655
6.96612
7.62581
7.27782
7.37828
7.13428
6.93981
7.07799
7.2186
7.88486
7.00616
7.14303
6.96014
8.14826
7.19848
7.11224
7.13346
7.69352
7.03566
7.0662
7.69293
6.8335
7.39189
7.02075
6.82094
7.21567
7.09011
7.00713
7.02944
6.85386
7.16679
7.03292
7.10844
7.43637
7.02922
6.92583
7.20492
6.85725
6.8007
6.89051
6.97107
7.27618
7.30117
7.32116
7.01663
6.89696
6.9764
7.64617
7.33029
6.92173
6.94654
7.04437
6.92062
7.22604
8.00861
7.00037
7.13657
7.08496
6.86999
7.35589
8.8853
7.24956
7.21928
7.42975
7.046
7.1779
6.81686
7.25338
6.78764
6.93747
6.95836
6.95841
6.92885
6.77757
7.10255
7.231
7.06171
7.06897
7.07108
7.45719
6.98428
6.84155
7.0881
6.78233
7.04924
6.95039
7.42704
7.87776
6.98591
7.20552
6.97158
8.23642
6.82778
7.10615
6.96742
6.91332
7.02409
7.17151
6.98444
6.87171
6.95767
6.81528
6.93514
6.85716
8.37426
6.99573
6.9454
7.12965
7.46817
6.88966
7.01951
6.97124
6.88276
7.35917
6.93884
6.76404
7.09813
6.89542
7.02442
7.29953
7.19179
7.86603
6.97638
6.98332
7.26217
7.11313
6.93656
6.90157
7.07465
7.01796
6.9401
7.12307
6.90652
6.79865
6.9276
7.13008
7.17449
6.89505
7.3998
7.11597
6.81038
7.15665
7.08568
7.30569
6.99777
7.10179
6.83735
6.87851
6.97177
6.79938
6.79662
7.06396
7.18768
7.33909
7.42766
7.20655
6.96803
6.93415
6.81379
7.04737
6.86412
6.9306
6.86675
6.95101
6.91434
6.96181
6.88076
6.96347
7.0562
7.30975
7.12325
6.83202
7.18339
7.21352
6.94734
6.86441
7.02757
6.84774
7.44238
7.1863
7.06251
6.93129
6.89808
7.03429
7.04641
6.92522
6.96595
6.94737
7.43252
7.16075
7.02088
6.99062
7.22907
6.86121
7.19589
6.95195
7.61321
7.29293
6.8381
6.96142
6.95137
6.9153
6.98622
6.94701
7.2582
6.96958
7.17378
7.00206
6.94922
6.95456
7.46318
6.9027
17
3.26733
3.35639
374
0
SCALARS cell_frequency_modifier float
LOOKUP_TABLE default
1.9253e+18
2.44392e+16
1.68349e+17
1.65321e+15
4.50573e+14
1.01753e+14
2.02215e+12
1.60426e+13
7.33846e+14
3.63912e+16
1.78224e+13
1.24677e+15
4.6712e+10
1.12601e+12
1.95126e+14
4.09772e+14
6.49796e+12
3.82175e+13
3.56439e+10
5.74811e+08
4.5074e+10
6.08937e+11
6.57843e+12
5.30384e+11
3.4966e+10
2.61604e+09
3.62519e+08
9.42889e+08
1.89003e+10
1.33298e+11
1.23402e+14
6.00643e+11
1.53534e+09
2.07567e+08
1.25153e+07
3.12375e+12
5.05864e+10
9.95473e+18
3.32701e+18
6.00043e+17
1.01367e+16
2.26266e+15
8.81957e+14
3.92278e+13
9.04589e+12
1.47925e+11
1.82706e+10
1.73071e+12
8.21885e+12
6.72025e+14
1.68956e+15
4.62465e+15
8.8782e+17
4.76343e+18
10000
10000
2.38269e+17
2.45907e+14
1.41065e+08
1.99649e+14
2.23892e+17
1.43169e+09
5.34551e+10
3.22826e+15
2.3383e+12
1.27686e+14
4.4132e+08
5.51145e+09
8.19524e+12
3.67235e+09
7.53218e+07
1.95597e+08
8.26059e+09
2.83483e+16
9.46313e+15
3.93419e+14
1.05014e+09
5.36352e+11
6.50973e+13
1.56709e+19
1.25885e+08
2.3077e+18
9.48197e+09
7.32169e+08
9478.79
4.23826e+18
5.15949e+15
1.28137e+18
4.55789e+09
2.11487e+13
2.2286e+18
10000
9.11506e+16
8.82277e+12
3.23937e+16
2.81914e+13
1.696e+12
1.90645e+13
1.55039e+16
4.63597e+12
1.07665e+14
6.25869e+12
7.61295e+07
2.72309e+10
8.92458e+08
1.0921e+12
8.79938e+09
6.70273e+06
1.56604e+10
3.83223e+11
1.7979e+09
3.91935e+11
7.11232e+07
2.41571e+10
6.96972e+11
4.31788e+07
1.0408e+09
5.49421e+07
8.01286e+09
1.19548e+06
1.66997e+06
1.86856e+08
1.44358e+11
1.91296e+06
1.05664e+07
6.43431e+07
384545
123683
6.01718e+09
3.87828e+09
7.03018e+07
1.02e+09
43675.1
2.07017e+07
3.12816e+06
1.09327e+07
1.93216e+06
2.29291e+06
3.38687e+06
7183.12
2.92203e+09
4.36873e+09
6.04701e+08
1.41795e+08
164.731
3.55707e+07
1.45918e+06
3.58912e+08
687.818
3.85515e+07
9.25041e+08
2.94321e+07
339782
803841
2.68268e+06
278469
6.34946e+06
1.51777e+07
14014.6
975348
197983
341803
1.03192e+07
373301
78780.8
0.827024
2017.74
1.44913e+07
1.74419e+06
2970.18
7.61403e+08
2.97581e+06
48961.6
5718.38
31389.5
4.23399e+06
422400
79982.5
132654
3.43856e+08
4.76018e+06
27358.1
20804.5
3183.2
69678.9
1.19745e+06
2477.75
268.148
9.39803
105.291
6.5903e+06
9609.66
16465.2
41556.6
19212.7
862533
4.93974e+06
316068
72169.6
51725.2
914230
209.495
11415.1
86972.9
266530
5423.14
2.15248e+07
2069.31
7375.48
458.011
176729
1197.53
12.7456
6575.92
164.872
254.926
9058.71
468509
4598.67
10977.3
304.246
52326.4
853.63
6.82787e+06
3.73132
1133.82
2940.98
5195.22
193336
874.975
463707
935.933
26.8621
14754.8
176.251
83.1287
378.311
226.639
835.969
1234.77
182.212
257.999
20021.6
1.93983
120.403
2868.28
549.617
8778.95
650.372
10170.3
14133.1
263004
5.73083
19.3291
5.52876
98.2278
126.947
452.9
42.7346
978.12
27.0636
667.841
795.563
143.898
2.19759
5.02855
84701.5
22339.3
0.785798
54.461
1.38007
1.00765
170.627
15.7955
289.831
4.87617
346.609
876.007
2299.06
2.95222
132787
7.44739
87.5739
1.68753e+06
27.1257
134.087
7240.28
7584.78
18.0686
213.309
9.73907
1129.61
40.7692
10198.9
46.3115
187.598
13.4123
10.1091
102.327
19.0918
626.287
30.847
1.92225
157.41
104.717
448.695
2160.24
33.1827
4.44518
193.218
1.04929
10.6567
103.742
38.3382
12.0487
159.553
68.9596
4.64257
67.3645
76.679
1.1231
106.036
5235.59
5.87513
0.817785
35.208
0.994051
1.67261
6.7623
30.0255
1.67783
491.829
133.211
9.89653
0.539701
14.5888
11.9423
5131.07
9.07419
3.70494
4.25705
185.39
3873.77
102.575
31.6848
15.432
3.79786
7.70629
675.852
23.0422
4.05664
2.77001
27.9396
7.12984
52.1138
1.71645
5.31736
1.46757
4.86564
6.14334
129.763
31.0868
5.43476
1.93408
104.011
101.989
8.0471
0.437741
1.84731
13.4383
0.796418
113.313
1.13373
3.80995
5.41723
1289.35
9.77363
362.152
2.59818
6.43795
28.099
29.674
4.75695
0.413748
3.72107
1.22296
120.671
8.0655
0.733621
619.517
0.471629
7.07763
12.0268
33.0591
733.734
10.1633
118.238
1.90216
0.398317
1.7885
1.07951
8.26974
1.3811
2.20468
0.353456
1.1103
12.5689
263.626
325.565
1.44416
9.60772
2.01406
4.31181
3.25514
0.525275
488.66
1.72143
3.36276
3.90827
3.31951
50.868
1.52719
0.878667
0.620825
2.28783
1.1701
0.941524
3.80202
1.78975
1.34303
1.06417
1.54647
0.863859
0.818024
1.09579
0.726976
8.30241
1.23791
4.8108
2.2991
1.35029
5.23417
115.096
1.92376
3.07026
104.394
0.955449
0.477254
0.975659
0.663317
2.13519
0.493047
174.711
114.087
1.52829
7.7909
350.277
1.51328
1.55398
1.1303
0.710858
134.116
1.53382
2.28267
2.05218
0.82885
0.381752
0.876341
136.945
0.36033
330.666
1.00815
3.00048
0.627626
2.15093
1.42485
101.665
4.48887
121.79
101.308
0.501256
120.02
0.845799
5.39713
1.73746
0.689467
4.85372
0.954121
355.475
107.036
1.04257
0.844157
0.548092
132.117
10.5455
0.57958
246.822
0.89585
100.629
1.54736
0.744583
1
1
1
1
1
SCALARS cell_area_modifier float
LOOKUP_TABLE default
100
7.31387
100
0.430597
0.460266
0.53669
0.830157
0.35319
0.482427
100
0.635384
100
0.331021
1.0152
2.40288
0.749439
0.312442
100
0.506829
0.313419
0.318398
0.580197
0.590454
0.358241
0.412855
0.349494
0.289847
0.302994
0.321463
0.76082
100
27.0811
0.468882
0.63138
0.288179
100
0.519979
100
100
100
100
100
100
100
100
100
100
100
100
100
100
100
100
100
100
100
100
100
100
100
100
2.46192
100
100
0.623522
100
0.309546
0.456076
100
0.425117
0.286531
0.458162
0.42154
100
100
100
0.57029
0.46239
100
100
100
100
0.647705
0.732992
0.370151
100
37.1111
100
0.364762
100
100
100
100
2.97329
100
100
100
0.897046
100
6.81633
100
100
0.303913
100
100
100
0.803528
0.33658
100
100
100
100
100
100
100
1.16919
0.426928
0.301172
100
0.2941
3.26384
0.475558
100
0.494327
0.30027
100
0.289011
0.314402
100
100
0.651919
100
100
0.362125
1.22644
0.438129
0.379977
100
0.388824
2.10063
100
100
1.21161
100
100
0.489497
0.306703
100
0.350718
1.30639
7.88976
100
0.356965
0.402895
0.338857
0.328848
0.593954
1.86592
0.432456
100
100
0.296713
100
0.95702
0.371524
0.53958
0.3743
0.778555
8.5641
0.391865
100
0.851317
0.291533
100
100
100
0.401282
0.372907
0.319413
100
11.5172
1.52511
0.290688
0.326704
0.322498
1.09269
0.333222
0.304837
9.36449
100
100
0.297594
0.30208
100
0.423321
100
100
100
100
0.542501
100
0.60108
0.294966
0.441994
3.49129
0.320435
100
0.487117
0.335454
0.378542
1.65074
0.31739
0.324587
0.436221
100
1.15571
0.533831
100
0.354439
0.359526
0.287353
0.447921
0.307645
100
0.363439
100
0.31147
0.755087
2.52393
0.368789
100
0.409481
0.292384
100
0.512008
0.298481
0.29324
100
0.325642
0.334334
100
0.367437
100
1.25721
100
0.608379
0.34233
14.9552
143.143
1.06937
100
100
0.930362
0.366094
3.61733
0.327772
1.35957
0.477825
0.305767
0.583576
0.612095
2.24161
100
0.399681
0.387321
0.315392
100
100
0.504278
0.382881
0.449933
1.00502
0.345875
0.340007
0.344685
4.4141
0.551458
0.586995
0.418023
2.65782
100
0.627426
0.398093
100
0.347073
100
6
100
0.563872
0.531002
0.464534
1.7672
0.404522
100
0.341164
0.445928
0.390339
0.329931
1.32365
0.337715
0.717251
0.351949
0.573555
0.528202
0.545455
0.881266
100
0.316388
0.375703
1.79892
0.687714
1.67839
1.54869
0.702172
0.332118
17.5789
0.308593
0.377117
0.443952
0.509405
1.11706
100
100
0.660514
0.496777
0.517295
0.810024
1.27319
0.360821
13.013
1.41726
100
100
0.889086
0.416286
0.38583
0.557596
100
0.38435
2.3466
0.995035
100
100
3.75281
4.61751
0.576857
1.62399
0.837093
100
0.567063
0.295837
2.73025
0.797136
0.692467
3.16088
0.514638
3.89883
0.604707
0.707128
0.597496
100
6.38217
0.419774
1.24164
100
100
0.921803
0.407814
0.406161
0.772552
0.560716
1.19713
0.348279
0.664897
2.58915
100
0.393404
100
0.414564
0.471086
1.59809
4.05668
2.19256
0.394955
1.03619
1.10474
100
0.45401
0.722422
100
0.440053
2.88761
2.0161
1.12965
100
0.43433
5.66102
1.37827
0.396518
1.73657
0.966249
1.97633
0.985251
0.411161
0.343504
0.866033
0.784652
100
100
1.43759
2.14561
0.643545
0.499253
2.80672
0.355698
58.9412
1.39749
0.816626
1.04702
0.656189
21.3191
0.55451
0.738394
0.323539
0.525433
1.08091
0.9134
0.712154
0.766641
0.823336
1.05808
0.683027
0.858612
0.669339
0.743875
0.639438
3.06422
1.14253
2.29291
1.34137
1.183
4.22785
100
1.90133
2.05749
100
0.905149
0.299373
0.975657
0.615857
1.573
0.4919
100
100
0.428755
5.35829
100
1.50225
0.67384
0.873583
0.697286
100
1.48006
1.02559
0.939082
0.473311
0.381424
0.619666
100
0.310505
100
0.501753
1.83181
0.54844
1.9381
1.28958
100
3.37374
100
100
0.451962
100
0.678402
5.08629
1.70698
0.480115
4.84058
0.947966
100
100
0.484761
0.844145
0.466698
100
10.3299
0.522692
100