# vtk DataFile Version 3.0
2D-vertex
ASCII
DATASET UNSTRUCTURED_GRID

POINTS 852 float
0.446943 -3.78266 0
2.89652 -3.59407 0
3.29283 -2.64772 0
2.27485 -1.57132 0
0.00969768 -1.4079 0
-0.720024 -2.89251 0
3.82069 -2.61785 0
4.40093 -1.76782 0
3.47994 -0.244641 0
2.43144 -0.550644 0
1.26747 0.718079 0
-0.416825 1.20685 0
-1.19058 -0.0631642 0
-1.34644 -0.10052 0
-1.87626 -1.76738 0
-1.37278 -2.65601 0
4.97085 -1.9293 0
5.78865 -1.05496 0
3.96511 0.497074 0
3.69492 0.43243 0
2.82506 1.39868 0
1.75944 1.3197 0
1.13472 4.94973 0
0.277386 4.93104 0
-0.555677 3.06049 0
-1.77256 2.15663 0
-1.70101 0.250502 0
-2.99441 -0.0319889 0
-3.51424 -1.06295 0
-3.21727 -1.77586 0
6.85669 -1.05093 0
7.48297 -0.331815 0
7.31531 0.982307 0
5.10712 2.17105 0
5.57946 2.74774 0
3.24329 4.09961 0
2.48952 5.39081 0
1.60291 5.55476 0
0.696823 8.73587 0
-0.895048 8.78921 0
-0.591481 5.74784 0
-2.10049 4.81543 0
-3.15986 3.27466 0
-4.11677 3.31341 0
-4.8623 1.90534 0
-6.27348 1.60391 0
-6.56595 0.53933 0
-5.05935 -0.821309 0
7.74067 1.60559 0
7.40393 2.65004 0
6.65433 3.07629 0
5.93008 5.14449 0
3.58988 6.35279 0
3.52414 7.22243 0
2.08562 8.84635 0
2.62626 9.55008 0
-1.86152 10.1627 0
-1.77029 9.25873 0
-3.01419 7.93012 0
-2.69482 5.78175 0
-4.32842 6.09737 0
-5.71648 4.78491 0
-7.64189 3.29982 0
-7.50073 2.76615 0
8.32227 3.05504 0
8.32224 3.05754 0
6.84474 5.11729 0
7.28487 6.31601 0
6.02305 7.5984 0
6.23699 8.27868 0
5.4557 9.30043 0
5.1929 9.80655 0
-2.5834 12.4587 0
-2.83706 12.133 0
-6.03551 9.2425 0
-5.3656 8.45355 0
-6.09126 7.08257 0
-6.00856 6.91817 0
-8.62556 3.80956 0
-8.47644 3.45727 0
9.85628 3.35813 0
10.1762 4.31066 0
9.37548 5.29728 0
10.5452 5.71851 0
10.2445 7.24336 0
10.435 7.95265 0
9.65638 12.6001 0
10.6743 14.686 0
-9.6272 14.2763 0
-9.62679 14.2738 0
-10.0159 8.40057 0
-9.72371 7.88134 0
-10.0666 7.24717 0
-9.32683 6.15292 0
-10.1433 4.89758 0
-9.6841 3.91752 0
3.81652 -5.45002 0
5.01906 -4.89747 0
5.85342 -4.48873 0
8.19675 -2.88324 0
9.4813 -1.44048 0
10.8001 0.903302 0
10.8916 1.07261 0
11.5854 2.14798 0
12.3601 4.08075 0
12.5652 4.86679 0
12.7248 8.38803 0
13.2678 15.1007 0
-13.2079 14.7331 0
-12.6187 8.35869 0
-12.5337 7.08279 0
-12.1597 4.54228 0
-11.2838 2.60372 0
-10.4217 1.50673 0
-9.81585 0.787497 0
-8.90673 -0.531293 0
-6.96867 -2.65877 0
-4.88867 -4.04833 0
-2.78386 -5.03087 0
0.222062 -5.83093 0
12.5805 9.87917 0
8.50034 10.0671 0
-12.894 10.8197 0
-9.99602 11.656 0
-0.304297 2.72208 0
0.990287 2.82203 0
-1.8441 4.78358 0
-1.09033 3.05228 0
4.50098 4.3009 0
4.90395 5.22388 0
0.394006 10.3345 0
0.170897 9.23244 0
-1.10435 7.09765 0
-2.29188 6.80268 0
5.92911 5.14678 0
5.09305 7.12206 0
4.11716 7.62339 0
4.125 8.98048 0
2.11083 10.5646 0
2.10881 10.5632 0
-2.36235 10.3929 0
-3.92851 8.63621 0
-3.48428 7.94531 0
-4.45272 6.68291 0
1.38821 0.0743019 0
-0.0582647 -0.925377 0
6.49107 1.22609 0
5.40345 -0.315298 0
5.10511 2.17252 0
3.08198 2.98087 0
-8.88387 10.0353 0
-5.85003 9.93408 0
3.07948 2.98093 0
1.64762 3.65578 0
-9.34087 6.09331 0
-7.93047 5.48528 0
-0.75062 -2.90827 0
-1.15393 -5.59658 0
14.562 31.9727 0
16.8548 32.3079 0
1.25675 -3.43646 0
1.36049 -1.97996 0
2.51862 7.60454 0
1.34382 6.57798 0
8.32147 9.58836 0
5.45596 9.30293 0
9.03148 20.336 0
-0.0185587 12.2644 0
-2.65912 -2.03035 0
-3.35641 -4.79226 0
-4.29128 0.986433 0
-5.18349 -0.198774 0
-5.53524 -3.67141 0
-4.47067 -1.21426 0
0.414901 7.05076 0
-0.500295 6.61783 0
9.34551 5.15608 0
7.75722 4.36125 0
5.60529 -1.5884 0
7.33512 -3.57729 0
1.77574 -5.89359 0
1.80239 -3.86602 0
-6.13241 -0.0797804 0
-7.72472 -1.96732 0
-5.31607 3.68744 0
-6.64198 2.44092 0
7.57884 1.11427 0
10.05 -0.555011 0
-12.4087 5.93094 0
-9.3513 6.11278 0
12.8414 6.91016 0
10.7446 6.72626 0
-2.73386 2.33681 0
-3.64406 0.976678 0
-9.39455 0.220923 0
-6.62883 1.87067 0
-3.52398 5.58896 0
-4.28187 3.60709 0
-6.76205 5.67202 0
-6.34192 4.87474 0
8.25782 6.48387 0
8.46429 6.9667 0
-0.861546 12.1096 0
-0.642798 11.0134 0
12.585 9.88817 0
9.9358 11.1899 0
9.82635 13.488 0
1.81009 11.1196 0
7.85872 8.23448 0
9.07951 8.94502 0
-7.23732 7.18231 0
-7.57698 7.93516 0
-2.3106 14.4021 0
0.71375 13.5643 0
-9.9302 12.1544 0
-4.06625 11.9786 0
9.07819 8.94715 0
12.5987 9.41856 0
-10.7188 13.3095 0
-13.2649 13.7401 0
-12.6705 9.33635 0
-9.14591 9.59841 0
12.7605 17.8522 0
10.1193 16.2011 0
8.17818 10.5079 0
6.04849 10.6991 0
-9.14597 9.59588 0
-7.26251 8.9027 0
2.19138 14.0836 0
3.93906 12.4433 0
-4.36885 10.4011 0
-3.59847 9.73807 0
4.66809 12.1841 0
3.75587 10.6584 0
12.9393 11.5722 0
10.1458 11.73 0
-2.92693 13.9838 0
-4.51692 12.9388 0
-13.2403 26.8324 0
-0.0253826 15.1562 0
-6.44373 10.4864 0
-4.39041 12.2009 0
-12.7485 10.0495 0
-9.34064 10.6363 0
5.83379 16.2297 0
7.98577 14.3332 0
-1.18108 13.9297 0
-0.687 12.313 0
-10.3823 17.5594 0
-13.5184 16.6458 0
14.6548 38.736 0
2.12294 15.1581 0
-3.03496 16.6068 0
-10.3139 17.951 0
-10.675 12.6351 0
-13.1221 11.8514 0
-6.53844 14.2644 0
-5.98502 13.1581 0
-6.31812 11.221 0
-7.13627 12.159 0
13.1885 13.2722 0
10.6168 14.0401 0
-11.1785 19.1147 0
-14.0834 19.181 0
5.8422 11.7954 0
4.66881 12.1814 0
10.0363 15.3633 0
8.04661 14.9208 0
3.77109 13.5751 0
6.44656 15.6238 0
-2.12159 15.8268 0
-0.590499 16.142 0
14.1449 20.5321 0
11.4819 21.5164 0
0.139895 15.1227 0
1.09541 15.8356 0
12.1855 23.3037 0
3.76939 15.7104 0
13.0455 12.4073 0
9.95409 12.9685 0
-8.38907 13.7658 0
-8.42062 12.9 0
-9.23824 10.9712 0
-7.14154 11.7873 0
-9.95874 17.1509 0
-6.15691 16.0346 0
11.4147 43.1847 0
12.2071 44.8421 0
1.58192 13.451 0
2.36842 11.9165 0
-3.92846 15.6174 0
-3.83632 14.4445 0
-13.3389 15.8494 0
-10.1624 16.4976 0
-0.292433 17.6465 0
-0.395495 17.5778 0
7.52171 12.6932 0
7.10434 13.5996 0
8.42277 11.0222 0
7.38166 12.4093 0
-11.1385 18.5098 0
-13.7577 17.5059 0
-2.68502 16.6008 0
-1.72094 18.0104 0
1.39311 16.9325 0
3.06618 16.9144 0
6.06691 13.7687 0
5.80132 14.348 0
-7.43453 17.3879 0
-7.2155 17.8104 0
-9.07209 15.0167 0
-6.36715 15.2291 0
3.74948 15.6635 0
4.50279 14.4339 0
-10.5845 21.0414 0
-3.87552 17.8885 0
14.6447 21.6428 0
12.3788 22.4892 0
-16.144 26.1851 0
-13.8103 26.1046 0
8.26989 16.7264 0
7.38122 15.7248 0
12.7796 18.2359 0
9.1621 19.5094 0
3.85661 18.1871 0
5.68341 18.8556 0
1.09931 19.5164 0
3.23503 18.6416 0
-0.963003 25.3964 0
-3.57174 24.103 0
-3.2127 22.4186 0
-4.50945 19.767 0
-6.16201 14.9445 0
-4.02684 14.3354 0
-9.77894 19.9216 0
-8.23349 18.8139 0
7.70729 23.4297 0
7.04185 20.6278 0
-13.2197 15.0861 0
-9.42944 15.5473 0
-9.39442 15.6365 0
-7.19201 16.6276 0
-0.273006 19.7447 0
-0.0361272 19.4421 0
14.2808 31.0031 0
2.11743 22.8231 0
16.7735 27.8102 0
14.7324 27.9359 0
-15.008 21.3142 0
-12.3067 21.8599 0
-5.34665 16.3822 0
-5.16407 17.5784 0
7.78475 17.5266 0
6.612 17.5005 0
1.18449 17.2714 0
1.78252 18.3341 0
10.2806 15.8398 0
13.1714 16.0804 0
12.7268 17.9988 0
8.27723 17.0456 0
-11.8754 22.8054 0
-4.48589 20.0636 0
-2.19362 18.9909 0
-3.52368 18.8686 0
3.6376 23.2217 0
4.2556 22.5566 0
-5.78179 18.132 0
-5.6456 19.2241 0
3.86333 17.6966 0
5.85948 16.755 0
-1.93343 22.2533 0
-0.335678 23.5776 0
1.93738 28.3774 0
12.0484 30.7622 0
-9.66746 42.4336 0
-11.223 43.7292 0
-3.72865 44.9684 0
-2.56732 24.9358 0
-14.2958 19.6327 0
-12.0614 21.363 0
-1.80426 19.6537 0
-3.54466 20.6787 0
-7.43333 20.8816 0
-5.91614 21.1437 0
13.1496 26.6673 0
11.616 29.5657 0
4.85723 20.939 0
6.5152 21.2969 0
11.4507 21.6157 0
8.50305 22.3393 0
13.2197 19.0045 0
11.1762 21.0952 0
-13.4056 25.1618 0
-3.77504 21.8796 0
16.2254 25.8074 0
14.3578 26.9089 0
2.22289 20.5752 0
3.41496 19.7918 0
-15.6056 22.9677 0
-13.4651 24.026 0
-1.83546 27.0419 0
4.00386 24.3645 0
0.241497 21.0743 0
1.82415 21.4904 0
-8.22454 18.9091 0
-6.91242 19.8164 0
8.20227 18.641 0
6.67241 19.4633 0
-1.47862 21.4616 0
-2.17407 20.3734 0
12.7244 18.0088 0
8.2908 18.3731 0
-2.6412 24.6111 0
-1.40249 23.3615 0
-5.81991 21.7081 0
-4.82677 22.2751 0
-4.5506 24.3681 0
-5.14547 23.6494 0
-14.0888 19.1896 0
-10.5285 20.6866 0
5.43458 24.4557 0
6.04319 23.3645 0
-0.290069 29.6637 0
4.53826 44.7376 0
-8.21498 21.8609 0
-7.87271 22.9318 0
1.90033 45.8545 0
1.65199 47.7976 0
-10.0121 28.2575 0
-7.68248 30.3991 0
9.62895 20.8245 0
8.38597 21.9958 0
15.1015 22.7219 0
12.6507 23.7118 0
5.77984 22.8119 0
6.65942 21.6777 0
2.26011 21.1387 0
4.02751 21.7595 0
3.37249 24.9731 0
5.24847 28.4238 0
4.6831 20.2435 0
5.77681 19.193 0
1.67663 23.2449 0
1.93788 24.4546 0
12.919 18.545 0
9.60658 20.6639 0
-5.66289 37.1417 0
-4.3814 32.0216 0
-13.6566 28.5426 0
-16.1867 28.516 0
-0.164611 21.5659 0
0.303008 22.8901 0
-7.26662 23.0712 0
-6.93253 23.8112 0
-9.7618 20.3017 0
-7.43321 20.8791 0
8.92386 25.8296 0
9.92843 24.0827 0
-16.0574 24.839 0
-13.6632 24.8447 0
-7.34826 24.6047 0
-7.29474 26.1876 0
4.20337 32.4684 0
8.41898 31.4096 0
-13.6624 30.6038 0
-9.61415 29.2471 0
8.75049 26.3108 0
5.76742 27.38 0
2.40664 27.95 0
1.38236 26.2289 0
-4.74426 26.1568 0
-4.6476 26.2104 0
12.5536 42.3012 0
13.9413 43.4008 0
-0.0696498 24.5656 0
1.25728 25.0214 0
-9.43259 23.8537 0
-9.55789 24.3228 0
5.71704 37.2865 0
5.28705 41.9649 0
-3.25076 25.8298 0
-2.6639 26.9405 0
14.4521 28.3497 0
12.3038 28.4159 0
-7.5471 44.4604 0
-8.07037 46.1299 0
-8.86381 42.8171 0
-6.72374 35.6756 0
10.1935 23.586 0
9.78297 22.6013 0
-10.4845 26.4223 0
-9.02645 24.8817 0
12.9113 26.0699 0
10.5611 25.53 0
-1.53519 38.0634 0
-0.555349 31.3004 0
-9.85051 21.8411 0
-10.3113 22.8793 0
16.8976 29.4162 0
14.9316 29.3575 0
15.5069 23.6586 0
13.2309 24.8602 0
14.8268 36.2548 0
12.0131 34.793 0
-1.74219 29.6915 0
-1.40669 27.9775 0
-13.348 36.4106 0
-15.2214 36.5879 0
3.45115 25.8712 0
2.23264 26.6482 0
7.79658 30.3427 0
7.24439 27.2327 0
5.99617 25.0881 0
4.9746 25.9918 0
-5.86774 29.4134 0
-5.21812 30.0409 0
8.16796 24.198 0
7.96832 24.6392 0
5.9052 30.0849 0
5.91865 32.5922 0
-13.55 28.7403 0
-10.6299 28.1513 0
15.135 38.5227 0
16.721 39.3543 0
-8.70766 27.2955 0
-5.77224 28.6778 0
-11.2456 38.6954 0
-9.29539 34.3738 0
3.1599 31.9912 0
2.65786 32.3374 0
-16.1679 27.3977 0
-13.447 27.3079 0
-16.1716 29.9946 0
-14.1971 29.8811 0
-0.4795 40.162 0
[...]
CELL_DATA 1278
SCALARS current_Length float
LOOKUP_TABLE default
0.880706
1.02599
1.48152
1.46693
1.65425
1.46771
0.528708
1.02919
1.77998
1.09223
1.03262
1.2161
1.75378
1.48715
0.487289
0.160268
1.74904
1.02135
0.0344156
0.592357
0.564074
0.83395
0.277809
0.710383
1.30011
1.06854
0.77717
1.06171
0.857535
2.04767
0.421557
0.534713
1.90747
0.498941
1.32389
1.1546
0.772289
0.825842
1.06805
0.9536
1.32477
0.859531
2.02642
0.00249763
1.27369
1.60257
1.49511
0.90164
0.765024
1.05552
0.723312
0.874755
1.19252
1.58078
1.86983
0.978038
0.957697
1.59327
1.19977
1.44301
1.10402
0.634792
0.707788
0.51729
1.09739
0.862316
1.12396
2.19134
1.7324
1.46158
0.872122
1.07568
1.39318
0.887429
1.13758
0.908555
0.99323
1.82002
1.09757
1.13446
0.851279
1.9103
0.336902
0.631863
0.552022
0.570403
1.00368
0.00249998
1.42088
0.00248836
1.27697
1.79909
0.715853
0.713127
1.28622
1.60333
0.00251569
1.67053
0.412831
0.551206
1.23885
1.035
0.470334
1.55118
0.184026
0.598585
1.45624
0.382545
0.849271
1.56321
1.00481
1.18521
0.987323
1.2433
1.02728
1.62234
0.734439
0.99185
1.23641
0.473694
1.38225
0.00250589
1.33315
0.886472
0.595774
2.14741
0.720932
1.32084
2.32932
0.047007
1.08228
1.06403
2.07145
1.32341
2.57541
0.929103
2.70733
1.1064
2.27005
2.28527
1.6399
3.13901
0.192459
3.24526
1.27976
2.11056
2.19597
0.812366
2.19217
2.06195
2.33084
0.460964
2.62645
3.60968
1.05662
2.60318
1.27872
2.47258
1.15862
2.04746
2.07006
1.3952
2.75476
0.940406
3.04546
0.706047
2.57401
2.64986
1.75504
2.82094
0.620279
2.76244
1.3958
2.06058
1.55494
1.93175
2.08222
0.816379
2.12724
1.02455
0.0100797
0.545989
4.08449
0.783798
1.02131
3.01618
1.51941
1.68777
1.29844
0.258362
1.12589
1.88828
1.89088
1.0292
1.00711
1.2393
1.15442
1.12444
1.70446
1.33898
1.22361
0.916104
1.04489
2.14493
1.09713
1.36862
1.35711
0.631228
1.72998
0.00250165
1.80368
1.44866
1.39885
0.821392
1.57352
1.59108
0.655003
1.42322
1.75831
1.67579
1.65191
1.88647
0.745577
1.13031
2.17864
0.509445
0.716018
2.48149
0.00249817
1.39189
1.58293
1.44
1.81417
1.53588
0.671353
1.72531
2.7184
0.930418
1.81882
2.31727
0.694444
1.00152
1.46019
1.31514
1.04231
1.56011
0.51109
0.568181
2.87969
0.66202
0.670206
2.01092
0.613433
1.70331
2.84857
1.08187
0.956346
1.4835
0.748412
0.968324
2.67785
1.70853
0.771433
1.01243
0.144347
1.185
1.77606
0.720227
1.73959
2.63591
2.08843
1.12742
2.02774
0.755812
1.85993
2.46946
1.16824
0.91827
1.81985
0.294724
1.05239
2.98218
1.41081
0.0220858
3.06278
1.48246
0.719404
2.10483
1.03006
0.647293
1.63659
0.896549
0.444338
3.22039
0.951632
1.03731
2.12184
1.18325
2.04213
0.901205
1.63009
1.80153
0.525124
1.7569
1.48628
1.11774
1.72087
0.579501
2.95177
0.9642
2.15743
2.02537
1.40498
1.67994
1.41251
1.1504
1.27318
0.825928
1.56327
1.492
0.168641
0.502739
1.60623
0.748688
0.00251369
1.03823
3.55189
1.45687
0.99467
2.58226
0.979035
0.00252233
3.5343
0.150396
1.92255
3.11486
0.569429
1.1155
2.13825
1.47834
1.01737
2.00696
0.878426
1.65665
1.65951
1.55307
1.15023
1.01643
0.773741
1.6477
1.77566
0.841874
0.998323
2.7979
0.744915
1.48439
1.01944
0.588449
1.68522
1.44897
0.810902
0.39308
0.745205
0.717424
0.75487
3.45806
2.12871
2.11368
0.590769
1.22435
0.268067
1.69048
0.397611
0.892748
3.26642
0.966267
1.07668
1.52382
0.349991
0.996085
1.42949
0.675776
1.89404
2.56954
1.91662
1.48277
1.23702
2.1625
1.52433
0.371723
1.83026
0.648511
2.68389
0.924416
1.11839
2.90572
1.65734
0.00280979
1.23525
0.395646
0.861788
2.03832
1.14423
1.04361
1.30137
1.43718
1.1363
1.56319
1.21791
0.104053
2.83912
1.66062
1.23081
1.19219
0.618828
0.0509626
2.01188
0.8766
0.534907
3.14191
1.33793
1.68366
0.866405
0.350267
0.999367
2.2499
0.684244
0.832476
2.5353
1.44144
2.25493
1.8371
0.875542
0.972977
1.72433
0.881659
0.219539
1.1765
0.772536
1.1538
3.24198
1.36454
1.2899
0.12389
2.1367
1.14673
0.997881
1.5223
0.316638
1.73434
0.606233
1.70653
2.80507
0.957322
1.39426
1.70773
1.13657
1.39432
1.67316
1.05111
1.42965
0.637319
0.798021
1.53275
0.475897
0.925353
0.350873
2.71327
1.70326
1.12823
1.44201
0.359212
1.46936
1.04136
1.17177
0.837088
2.41886
1.3488
1.02596
2.33512
0.31922
0.9401
1.33904
0.339061
0.836867
3.83511
0.490531
1.05933
1.94526
1.13787
0.76999
1.36551
1.39886
1.01413
1.66911
1.72225
1.08544
1.12442
0.777292
1.48006
2.22033
1.61547
2.25223
1.85511
1.66539
0.935499
1.75561
0.353241
0.63977
3.81824
0.0958073
1.19293
2.41513
1.08852
1.81382
0.384278
1.00951
1.21994
2.24537
1.61084
0.499868
2.04494
1.82613
0.554184
2.75591
1.61128
1.32534
1.21006
0.986195
1.64267
1.17304
0.397928
1.48469
1.21947
0.535479
0.984402
2.90078
0.0102958
0.688443
4.55051
1.03923
0.297465
1.56586
0.768659
1.33374
1.33567
1.57157
0.829083
0.907924
0.829511
1.25922
1.1005
1.11681
0.525839
2.20712
1.31814
0.938401
1.0885
1.45239
0.511478
0.275868
0.812853
2.33809
2.02445
1.50163
0.333014
1.54506
0.489073
1.5115
2.82607
1.53396
0.778931
0.809147
0.0025097
1.79226
1.53966
1.23213
1.27228
1.737
0.716913
0.85148
1.69615
1.27449
1.34988
1.93718
1.78597
0.520421
2.9235
0.408523
1.22277
1.4107
2.07642
1.09312
2.16825
1.5438
1.16427
1.4264
0.992557
1.35554
2.38779
1.45019
1.20005
1.21395
1.42562
0.560125
1.63645
0.0955533
1.39845
1.59527
1.29438
1.22168
1.73686
0.913053
1.4042
1.29148
0.233772
0.282173
4.44851
1.06023
1.22877
1.75955
0.572546
1.12364
1.14364
0.626812
0.666641
0.933022
0.0100736
0.857902
3.86218
1.43362
0.612078
1.24945
1.47555
0.565376
1.29669
1.25301
0.62192
1.12431
1.19648
2.10215
1.95892
1.62077
0.101953
1.60964
1.57079
0.362964
1.70791
1.02073
0.776665
2.64312
1.54548
0.407216
1.43532
0.564815
1.16691
1.87324
0.876903
0.553252
0.901624
1.34618
0.350143
1.51652
0.610137
1.52542
1.23756
0.549132
0.162104
3.9322
0.000778558
1.26541
1.48208
1.2054
1.39227
2.5302
0.637655
1.41871
1.40437
1.98777
1.79436
0.811849
0.380448
1.18342
2.3991
0.845821
0.895805
1.27982
1.9251
0.842313
2.39417
0.895869
1.84568
0.692522
0.986034
1.23518
0.626834
0.898998
1.06669
2.11719
0.266576
1.16566
1.28402
0.634725
1.26207
0.948052
0.895977
1.44778
0.11056
1.1451
1.47522
1.77048
1.02317
0.885719
1.40303
1.81195
1.7009
0.485571
0.291773
1.20026
1.69035
1.12526
0.834611
1.25627
1.11604
0.804732
2.14928
1.06067
1.3017
1.74954
0.890484
1.10714
0.410577
0.562959
1.30646
1.06686
0.691506
0.771211
1.17044
0.643143
1.6644
1.8492
1.61751
1.63851
1.85318
1.63565
1.31211
1.13586
1.48336
0.930368
1.96695
1.83356
0.689561
2.57369
0.525414
1.39691
0.719932
1.44575
1.02916
0.745217
0.449035
1.77509
1.88174
0.579069
1.31335
1.44515
1.05077
1.48429
1.07063
2.02261
1.59871
0.0881099
0.741745
1.05612
0.903212
1.76425
1.52646
0.484234
1.90888
1.71511
0.18495
0.224636
0.604706
1.96966
1.45401
2.26355
1.79085
1.39109
1.37077
1.56923
0.559589
1.13748
1.45102
1.14741
1.18032
0.609861
1.21293
0.518521
2.72237
1.47874
1.31151
1.97772
1.8077
0.567958
0.784382
1.65397
1.6922
0.336771
1.78664
1.29327
1.11674
0.534697
1.54504
0.88718
0.684634
1.23734
0.921002
0.0025013
1.74078
1.41868
0.607356
0.926004
1.57948
1.29594
1.17698
2.03463
1.8494
0.769749
1.41725
0.772017
0.458975
1.94631
0.236731
1.38356
1.7572
1.32272
1.09045
1.45196
2.33119
2.16225
0.901927
1.27682
1.16755
1.03798
0.687863
1.25641
1.43125
0.766032
0.548948
3.18744
1.13924
1.07231
0.685737
1.54737
2.3973
1.7031
0.43218
0.708622
2.71906
0.67247
1.28985
1.93287
1.7561
1.69698
1.11386
1.78385
1.71908
0.873839
0.66311
0.963386
1.60044
0.470684
1.25704
2.28891
0.0268523
1.49344
0.516086
1.54427
0.692793
2.15057
1.01825
1.09918
1.1357
0.987561
1.21238
1.07054
0.703431
0.853375
0.612426
1.42366
0.539022
0.83542
1.40896
0.426289
2.35018
1.30516
0.716277
0.994013
1.02841
1.08236
1.96244
1.21142
1.23644
0.959564
1.14932
1.09935
2.27352
1.05935
1.23384
2.08374
0.836232
1.18962
2.0579
0.720538
1.29558
2.0459
1.01472
1.93323
2.14734
1.00519
1.49785
1.33493
1.06238
1.58495
0.25293
0.635326
0.631707
2.38057
0.178877
1.30473
0.122949
0.471308
1.11291
1.59134
1.73809
1.68736
1.26334
0.972481
1.24831
1.16377
0.468287
0.942606
1.84716
1.27411
1.67193
1.35192
0.443598
0.812233
1.44775
0.445118
0.550007
0.323833
1.41096
0.672004
0.88739
1.45041
0.392716
1.90049
1.28943
1.15972
0.803573
1.6517
0.877812
1.71788
1.50346
0.898172
2.07206
1.63756
1.08678
1.36232
1.18314
1.33991
0.550989
1.99866
1.38203
1.11015
2.01991
0.975071
1.87484
1.60703
0.8805
1.45337
1.27938
0.6086
0.88844
1.14606
0.642037
1.38898
0.717986
1.76315
1.68816
1.30674
1.85965
1.63884
2.07477
1.19875
2.0551
1.76187
1.34889
0.629357
1.25749
0.673994
0.830232
0.828919
0.894583
1.38449
1.94933
1.65547
0.206158
1.91168
2.0701
1.64927
1.20761
1.17345
0.580779
0.499013
1.16305
1.08277
1.45963
1.88032
1.00548
1.39451
0.604474
1.2032
1.3762
0.913649
2.02335
1.34166
0.167539
2.79745
0.460448
1.39135
2.26462
1.46453
0.261979
1.11143
1.1648
0.0446574
0.888227
1.40577
1.50494
0.360266
2.21726
1.30794
1.89835
0.904859
0.407321
2.38573
1.11236
1.13671
0.0999323
1.18481
0.558706
0.348423
0.311347
1.0592
2.18404
1.53303
1.31764
0.743598
0.781353
1.36871
1.54045
1.02125
1.03462
1.12593
1.16776
1.53412
2.11326
0.922799
1.60333
1.34512
0.923965
0.968419
0.989066
1.58274
1.05176
1.03576
0.763079
1.21695
1.38423
1.81678
0.916586
1.04909
0.830499
1.07947
1.31148
1.04239
0.845724
2.50439
0.698933
1.03979
2.03468
0.704603
1.49404
1.31297
1.83265
1.626
1.15996
0.91428
0.872014
1.49731
1.0798
1.18299
0.642365
1.60913
1.43734
1.04986
1.06809
1.5549
1.07137
1.21036
1.89148
1.22308
0.887162
1.72213
1.04259
1.20796
1.47599
1.17382
1.53804
1.4852
1.11763
1.08653
1.51189
1.77706
0.728066
1.87618
1.61032
1.52666
1.16197
1.44059
1.33265
1.47964
1.26119
0.604722
1.38093
1.67985
0.884414
0.883152
2.65513
1.09729
1.18222
1.54142
1.70331
1.47346
1.56151
1.36195
1.1089
1.0132
1.1915
0.404218
1.26951
0.358087
1.30604
1.57608
1.46998
0.659024
2.0164
1.09707
0.751321
1.67513
1.18431
1.19371
1.80365
1.3238
1.44507
1.13003
1.72836
0.645982
1.19289
1.31814
0.868846
1.91487
0.83877
0.903583
2.05397
1.03169
0.754156
2.88577
1.01681
1.60122
1.85257
0.937151
0.732928
1.35389
1.95003
1.25946
1.22383
1.28514
0.747826
2.45505
0.499726
1.16541
1.05057
1.09801
1.76688
1.7736
1.84605
1.38441
1.20492
1.42534
1.32681
1.67082
0.648474
0.260697
2.72044
0.624928
0.636057
1.49185
1.85045
1.14304
0.949732
1.40947
1.95027
1.12774
1.31442
0.910985
1.27138
0.326927
1.21639
1.29743
0.484251
1.59019
2.25792
1.47579
0.659599
2.38014
1.39866
0.64458
2.48825
0.544405
0.629934
1.83772
1.06008
0.607176
1.76554
1.13108
1.68722
1.97253
1.03892
1.08544
1.98987
1.47054
1.54769
1.23246
0.287383
0.798271
2.10874
0.781817
0.538688
2.24452
0.427517
0.982096
1.5778
0.992186
0.720506
1.29691
1.5223
1.12249
1.68631
1.1152
0.722073
2.0698
3.29134
3.27901
3.29318
166
232
3.25102
3.31752
3.34551
3.36923
0
391
31
398
124
0

SCALARS edge_force float
LOOKUP_TABLE default
0.5
0.5
0.5
0.5
0.5
0.5
0.5
0.5
0.5
0.5
0.5
0.5
0.5
0.5
0.5
0.5
0.5
0.5
0.5
0.5
0.5
0.5
0.5
0.5
0.5
0.5
0.5
0.5
0.5
0.5
0.5
0.5
0.5
0.5
0.5
0.5
0.5
0.5
0.5
0.5
0.5
0.5
0.5
0.5
0.5
0.5
0.5
0.5
0.5
0.5
0.5
0.5
0.5
0.5
0.5
0.5
0.5
0.5
0.5
0.5
0.5
0.5
0.5
0.5
0.5
0.5
0.5
0.5
0.5
0.5
0.5
0.5
0.5
0.5
0.5
0.5
0.5
0.5
0.5
0.5
0.5
0.5
0.5
0.5
0.5
0.5
0.5
0.5
0.5
0.5
0.5
0.5
0.5
0.5
0.5
0.5
0.5
0.5
0.5
0.5
0.5
0.5
0.5
0.5
0.5
0.5
0.5
0.5
0.5
0.5
0.5
0.5
0.5
0.5
0.5
0.5
0.5
0.5
0.5
0.5
0.5
0.5
0.5
0.5
0.5
0.5
0.5
0.5
0.5
0.5
0.5
0.5
0.5
2
0.5
2
0.5
2
0.5
0.5
2
0.5
2
0.5
2
0.5
0.5
2
0.5
2
0.5
2
0.5
0.5
2
0.5
2
0.5
2
0.5
0.5
2
0.5
2
0.5
2
0.5
0.5
2
0.5
2
0.5
2
0.5
2
2
2
2
2
2
2
0.5
0.5
2
0.5
0.5
0.5
0.5
0.5
0.5
0.5
0.5
0.5
0.5
0.5
0.5
0.5
0.5
0.5
0.5
0.5
0.5
0.5
0.5
0.5
0.5
0.5
0.5
0.5
0.5
0.5
0.5
0.5
0.5
0.5
0.5
0.5
0.5
0.5
0.5
0.5
0.5
0.5
0.5
0.5
0.5
0.5
0.5
0.5
0.5
0.5
0.5
0.5
0.5
0.5
2
0.5
0.5
2
0.5
0.5
0.5
0.5
0.5
0.5
0.5
0.5
0.5
0.5
0.5
0.5
0.5
0.5
2
0.5
0.5
0.5
0.5
2
0.5
0.5
0.5
0.5
0.5
0.5
0.5
0.5
0.5
2
0.5
2
0.5
0.5
0.5
2
0.5
0.5
0.5
0.5
0.5
2
0.5
2
0.5
0.5
2
0.5
0.5
0.5
0.5
0.5
2
0.5
0.5
0.5
0.5
0.5
0.5
0.5
0.5
0.5
0.5
0.5
0.5
0.5
0.5
2
0.5
0.5
0.5
0.5
0.5
0.5
0.5
0.5
0.5
0.5
0.5
0.5
0.5
0.5
0.5
0.5
0.5
0.5
2
0.5
0.5
2
0.5
2
0.5
0.5
2
0.5
0.5
0.5
0.5
0.5
0.5
0.5
0.5
0.5
0.5
0.5
0.5
0.5
0.5
0.5
0.5
0.5
2
0.5
0.5
0.5
0.5
0.5
0.5
0.5
0.5
0.5
0.5
0.5
2
0.5
0.5
0.5
0.5
0.5
0.5
0.5
0.5
0.5
2
0.5
0.5
0.5
0.5
0.5
0.5
0.5
0.5
2
0.5
0.5
0.5
0.5
0.5
0.5
0.5
2
0.5
0.5
0.5
2
0.5
0.5
0.5
0.5
0.5
0.5
0.5
0.5
0.5
0.5
0.5
0.5
0.5
2
0.5
0.5
0.5
0.5
0.5
0.5
0.5
0.5
2
0.5
0.5
0.5
0.5
0.5
0.5
0.5
0.5
0.5
0.5
0.5
0.5
2
0.5
0.5
0.5
0.5
0.5
0.5
0.5
2
0.5
0.5
0.5
0.5
0.5
0.5
0.5
0.5
0.5
0.5
0.5
0.5
2
0.5
0.5
0.5
0.5
0.5
0.5
0.5
0.5
0.5
0.5
0.5
0.5
0.5
0.5
0.5
0.5
0.5
0.5
0.5
0.5
0.5
0.5
2
0.5
0.5
2
0.5
0.5
0.5
0.5
0.5
2
0.5
0.5
0.5
0.5
0.5
0.5
0.5
0.5
0.5
0.5
0.5
0.5
0.5
0.5
0.5
0.5
0.5
0.5
0.5
0.5
0.5
0.5
0.5
2
0.5
0.5
0.5
0.5
0.5
0.5
0.5
0.5
0.5
0.5
0.5
2
0.5
0.5
2
0.5
0.5
0.5
0.5
0.5
0.5
0.5
0.5
0.5
0.5
0.5
0.5
2
0.5
2
0.5
0.5
0.5
0.5
0.5
0.5
0.5
0.5
0.5
0.5
0.5
0.5
0.5
0.5
0.5
0.5
0.5
0.5
0.5
0.5
0.5
0.5
0.5
0.5
2
0.5
0.5
0.5
0.5
2
0.5
0.5
0.5
0.5
0.5
0.5
0.5
0.5
0.5
0.5
0.5
0.5
0.5
0.5
0.5
0.5
0.5
2
0.5
0.5
0.5
0.5
0.5
2
0.5
0.5
0.5
0.5
0.5
2
0.5
0.5
0.5
0.5
0.5
0.5
0.5
0.5
0.5
0.5
0.5
0.5
0.5
0.5
0.5
0.5
0.5
2
0.5
0.5
0.5
0.5
0.5
0.5
0.5
0.5
0.5
0.5
0.5
2
0.5
0.5
0.5
0.5
0.5
0.5
0.5
0.5
0.5
0.5
0.5
0.5
2
0.5
0.5
0.5
0.5
0.5
0.5
0.5
2
0.5
0.5
0.5
0.5
0.5
0.5
0.5
0.5
0.5
0.5
0.5
0.5
0.5
0.5
0.5
0.5
0.5
2
0.5
0.5
0.5
0.5
0.5
0.5
2
0.5
0.5
0.5
0.5
0.5
0.5
0.5
0.5
0.5
0.5
0.5
0.5
0.5
2
0.5
0.5
0.5
0.5
0.5
0.5
0.5
0.5
0.5
0.5
0.5
0.5
0.5
0.5
0.5
0.5
0.5
0.5
0.5
0.5
0.5
2
0.5
0.5
0.5
0.5
0.5
0.5
0.5
0.5
0.5
0.5
0.5
0.5
0.5
0.5
0.5
0.5
0.5
2
0.5
0.5
0.5
0.5
0.5
0.5
0.5
0.5
0.5
0.5
0.5
0.5
0.5
0.5
0.5
0.5
0.5
0.5
0.5
2
0.5
0.5
2
0.5
0.5
0.5
0.5
0.5
0.5
0.5
0.5
0.5
2
0.5
0.5
0.5
0.5
0.5
0.5
0.5
0.5
0.5
0.5
0.5
0.5
0.5
0.5
0.5
0.5
0.5
0.5
0.5
0.5
0.5
0.5
0.5
2
0.5
0.5
0.5
0.5
0.5
0.5
0.5
0.5
0.5
0.5
2
0.5
0.5
2
0.5
0.5
0.5
0.5
0.5
0.5
0.5
0.5
0.5
0.5
0.5
0.5
0.5
0.5
0.5
0.5
0.5
0.5
0.5
0.5
0.5
0.5
0.5
2
0.5
0.5
0.5
0.5
0.5
0.5
0.5
0.5
0.5
0.5
0.5
0.5
0.5
0.5
0.5
0.5
0.5
0.5
0.5
0.5
0.5
0.5
0.5
2
0.5
0.5
0.5
0.5
0.5
0.5
2
0.5
2
0.5
0.5
0.5
0.5
0.5
0.5
0.5
0.5
0.5
0.5
0.5
0.5
0.5
0.5
0.5
0.5
0.5
0.5
0.5
0.5
2
0.5
0.5
0.5
0.5
0.5
0.5
0.5
0.5
0.5
0.5
0.5
0.5
0.5
0.5
2
0.5
0.5
0.5
0.5
0.5
0.5
0.5
0.5
0.5
0.5
0.5
2
0.5
0.5
0.5
0.5
0.5
0.5
0.5
0.5
0.5
0.5
0.5
0.5
2
0.5
0.5
0.5
0.5
0.5
0.5
0.5
0.5
0.5
0.5
0.5
0.5
0.5
0.5
0.5
0.5
0.5
0.5
0.5
0.5
0.5
0.5
0.5
0.5
0.5
0.5
0.5
0.5
0.5
0.5
0.5
0.5
0.5
0.5
0.5
0.5
0.5
0.5
0.5
0.5
0.5
0.5
0.5
2
0.5
0.5
2
0.5
0.5
0.5
0.5
0.5
0.5
0.5
0.5
0.5
0.5
0.5
0.5
0.5
0.5
0.5
0.5
0.5
0.5
0.5
0.5
0.5
0.5
0.5
0.5
2
0.5
0.5
2
0.5
2
0.5
0.5
0.5
0.5
0.5
0.5
0.5
0.5
0.5
0.5
0.5
0.5
0.5
0.5
0.5
0.5
0.5
0.5
0.5
0.5
0.5
0.5
0.5
0.5
0.5
0.5
0.5
0.5
0.5
0.5
0.5
0.5
2
0.5
0.5
0.5
0.5
0.5
0.5
0.5
0.5
0.5
0.5
0.5
0.5
0.5
0.5
2
0.5
0.5
0.5
2
0.5
0.5
0.5
0.5
0.5
0.5
0.5
0.5
0.5
0.5
0.5
0.5
0.5
0.5
0.5
0.5
0.5
0.5
0.5
0.5
2
0.5
0.5
0.5
0.5
0.5
0.5
0.5
0.5
0.5
0.5
0.5
0.5
0.5
0.5
0.5
0.5
0.5
0.5
0.5
2
0.5
0.5
0.5
2
0.5
0.5
0.5
0.5
0.5
0.5
0.5
0.5
0.5
0.5
0.5
0.5
0.5
0.5
0.5
0.5
0.5
0.5
0.5
0.5
0.5
0.5
0.5
0.5
0.5
0.5
0.5
0.5
0.5
0.5
0.5
0.5
2
0.5
0.5
0.5
0.5
0.5
0.5
0.5
0.5
0.5
0.5
0.5
0.5
0.5
2
0.5
0.5
0.5
0.5
0.5
2
0.5
0.5
0.5
0.5
0.5
0.5
0.5
0.5
0.5
0.5
0.5
2
0.5
0.5
0.5
0.5
0.5
0.5
0.5
0.5
0.5
0.5
0.5
0.5
0.5
0.5
0.5
0.5
0.5
0.5
0.5
0.5
2
0.5
0.5
0.5
0.5
0.5
0.5
0.5
0.5
0.5
0.5
0.5
2
0.5
0.5
0.5
0.5
0.5
0.5
0.5
0.5
0.5
0.5
0.5
0.5
0.5
0.5
2
0.5
0.5
0.5
0.5
0.5
0.5
0.5
0.5
0.5
0.5
0.5
0.5
0.5
0.5
0.5
0.5
0.5
0.5
2
0.5
2
0.5
0.5
2
0.5
0.5
0.5
0.5
0.5
0.5
0.5
0.5
0.5
2
0.5
0.5
0.5
0.5
0.5
0.5
0.5
0.5
0.5
0.5
0.5
0.5
0.5
0.5
0.5
0.5
0.5
0.5
0.5
0.5
0.5
0.5
0.5
0.5
0.5
0
0
0
0
0
0
0
0
0
0
0
0
0
0
0
