# vtk DataFile Version 3.0
2D-vertex
ASCII
DATASET UNSTRUCTURED_GRID

POINTS 598 float
0.193985 -2.92716 0
2.64865 -2.80419 0
3.07047 -1.86991 0
2.0828 -0.766339 0
-0.184569 -0.54302 0
-0.950641 -2.00727 0
3.60125 -1.85482 0
4.20485 -1.02277 0
3.33104 0.522384 0
2.26633 0.244468 0
1.13343 1.53485 0
-0.549076 2.07276 0
-1.35396 0.825118 0
-1.51883 0.789626 0
-2.08222 -0.854336 0
-1.59837 -1.7557 0
4.77446 -1.2025 0
5.62094 -0.354275 0
3.84751 1.24329 0
3.56365 1.18452 0
2.72693 2.17233 0
1.64426 2.12434 0
1.12642 5.70658 0
0.207588 5.706 0
-0.639995 3.88481 0
-1.9005 3.03917 0
-1.8698 1.15232 0
-3.17548 0.894766 0
-3.71078 -0.117438 0
-3.42725 -0.836555 0
6.69207 -0.38417 0
7.34263 0.316038 0
7.21602 1.63505 0
5.04469 2.87833 0
5.53916 3.44115 0
3.23589 4.83467 0
2.53812 6.10464 0
1.60719 6.29694 0
0.704413 9.34979 0
-0.944782 9.42868 0
-0.64916 6.54184 0
-2.23146 5.66207 0
-3.28767 4.18338 0
-4.26925 4.23898 0
-5.02187 2.86939 0
-6.44294 2.58837 0
-6.74821 1.5334 0
-5.25668 0.150471 0
7.66702 2.24558 0
7.36675 3.29465 0
6.63893 3.73772 0
6.00283 5.80469 0
3.68034 7.06143 0
3.63584 7.86663 0
2.1993 9.44437 0
2.75414 10.1427 0
-1.95752 10.7486 0
-1.89575 9.96731 0
-3.11128 8.73128 0
-2.80981 6.64706 0
-4.48813 7.01193 0
-5.86639 5.74247 0
-7.81099 4.30685 0
-7.67383 3.76802 0
8.31432 3.67293 0
8.31441 3.67543 0
6.94003 5.75207 0
7.41564 6.94216 0
6.2348 8.22757 0
6.47445 8.89671 0
5.80062 9.88638 0
5.61914 10.2692 0
-2.756 13.0088 0
-2.95363 12.7895 0
-6.27116 10.1905 0
-5.58269 9.34229 0
-6.29421 8.05233 0
-6.19736 7.85431 0
-8.79632 4.8315 0
-8.6468 4.47174 0
9.8637 3.91581 0
10.2242 4.86012 0
9.47512 5.88195 0
10.6635 6.25327 0
10.4497 7.7894 0
10.6854 8.51652 0
10.121 13.2769 0
11.0899 15.5347 0
-9.95261 15.5413 0
-9.92113 15.418 0
-10.248 9.45973 0
-9.93773 8.9095 0
-10.2715 8.29169 0
-9.51991 7.17669 0
-10.3122 5.93051 0
-9.85405 4.9449 0
3.51778 -4.68569 0
4.73363 -4.1689 0
5.57721 -3.78672 0
7.97003 -2.25698 0
9.30263 -0.857533 0
10.7033 1.43295 0
10.7974 1.59174 0
11.5358 2.63919 0
12.3937 4.53914 0
12.6336 5.31334 0
12.9645 8.83457 0
13.5754 15.962 0
-13.3115 16.0636 0
-12.8048 9.41491 0
-12.7133 8.12326 0
-12.3281 5.57758 0
-11.455 3.63791 0
-10.5999 2.53878 0
-9.99927 1.8154 0
-9.10352 0.490924 0
-7.19538 -1.65797 0
-5.1436 -3.0782 0
-3.0655 -4.09958 0
-0.0832453 -4.96998 0
12.8724 10.5127 0
8.99275 10.6387 0
-13.0852 12.0198 0
-10.3096 12.7467 0
-0.404318 3.55605 0
0.923617 3.62909 0
-1.91573 5.61526 0
-1.21956 3.88842 0
4.52866 5.00059 0
4.95687 5.91347 0
0.396391 10.8578 0
0.175009 9.86448 0
-1.17791 7.8525 0
-2.41616 7.576 0
6.00202 5.80704 0
5.2543 7.76513 0
4.28645 8.28818 0
4.30812 9.54324 0
2.31962 11.0499 0
2.31749 11.0486 0
-2.58927 11.0647 0
-4.11733 9.49653 0
-3.66982 8.76556 0
-4.60516 7.59368 0
1.23503 0.899822 0
-0.239767 -0.0664553 0
6.39743 1.90284 0
5.26296 0.386722 0
5.0427 2.87983 0
3.03553 3.73159 0
-9.15196 11.0463 0
-6.08123 10.8376 0
3.03303 3.73161 0
1.59462 4.44257 0
-9.5127 7.11599 0
-8.09224 6.49452 0
-0.982566 -2.02274 0
-1.45045 -4.7023 0
7.65116 33.5423 0
9.09186 35.1491 0
1.01282 -2.60198 0
1.15462 -1.1515 0
2.58459 8.2833 0
1.38156 7.25466 0
8.80278 10.1469 0
5.80134 9.8888 0
9.63951 21.3392 0
0.241628 12.6172 0
-2.8744 -1.10192 0
-3.62717 -3.85134 0
-4.46445 1.93741 0
-5.37095 0.774363 0
-5.77914 -2.69248 0
-4.67392 -0.252276 0
0.413596 7.76601 0
-0.550497 7.3334 0
9.43632 5.73038 0
7.80413 4.99088 0
5.42107 -0.8807 0
7.08629 -2.92266 0
1.46637 -5.07298 0
1.5476 -3.04644 0
-6.32251 0.908005 0
-7.93912 -0.958504 0
-5.48418 4.64178 0
-6.80982 3.43001 0
7.48835 1.76051 0
9.89987 0.00407026 0
-12.58 6.95449 0
-9.53341 7.15429 0
13.0075 7.34373 0
10.9124 7.26139 0
-2.88072 3.24346 0
-3.8053 1.91542 0
-9.58179 1.24423 0
-6.80299 2.86551 0
-3.65916 6.46973 0
-4.43493 4.54385 0
-6.93333 6.66706 0
-6.51249 5.84485 0
8.42728 7.08298 0
8.66767 7.59172 0
-0.836607 12.4982 0
-0.690388 11.5937 0
12.8766 10.5218 0
10.3694 11.8351 0
10.2877 14.2508 0
2.11859 11.4359 0
8.12717 8.80753 0
9.44768 9.55076 0
-7.46277 8.1709 0
-7.80841 8.95587 0
-2.35502 14.7188 0
0.929205 13.8243 0
-10.2206 13.2852 0
-4.26687 12.7086 0
9.44665 9.55305 0
12.8791 9.93296 0
-10.9675 14.5593 0
-13.3969 15.0324 0
-12.8589 10.4413 0
-9.39737 10.6412 0
13.0418 18.7593 0
10.5374 17.2308 0
8.66815 11.0871 0
6.55907 11.2581 0
-9.3973 10.6387 0
-7.49128 9.88312 0
2.55542 14.3439 0
4.36347 12.8267 0
-4.61428 11.2494 0
-3.79135 10.4874 0
5.154 12.6013 0
4.22398 11.105 0
13.2598 12.2605 0
10.6035 12.4279 0
-2.97596 14.3495 0
-4.7967 13.6865 0
-10.1775 29.7072 0
0.0836347 15.2811 0
-6.71706 11.456 0
-4.69517 13.0187 0
-12.9355 11.1728 0
-9.64214 11.7078 0
6.55277 16.5364 0
8.55462 14.9926 0
-1.01626 14.1052 0
-0.634902 12.7078 0
-10.6494 18.9551 0
-13.4767 18.5896 0
5.71095 35.056 0
2.49521 15.3016 0
-3.23453 16.7745 0
-10.4963 19.3809 0
-10.9413 13.7903 0
-13.3016 13.1163 0
-6.87468 15.1984 0
-6.35888 14 0
-6.59193 12.0963 0
-7.47892 13.1151 0
13.5193 14.1124 0
11.038 14.8007 0
-11.07 20.8236 0
-13.581 21.5999 0
6.3308 12.2934 0
5.15563 12.5994 0
10.4684 16.1708 0
8.61054 15.7094 0
4.18832 13.8217 0
7.01607 16.1277 0
-2.14979 15.8888 0
-0.454137 16.2029 0
13.5328 23.7108 0
11.1236 23.631 0
0.425867 15.2144 0
1.48268 15.9765 0
11.0207 25.7833 0
4.31415 15.9452 0
13.3766 13.1802 0
10.4367 13.6805 0
-8.68671 14.8227 0
-8.76691 13.9312 0
-9.54253 12.0158 0
-7.49499 12.7555 0
-10.2589 18.4383 0
-6.53243 16.7988 0
4.01053 36.312 0
4.19286 37.9864 0
1.91968 13.6922 0
2.67268 12.2194 0
-4.09582 15.9892 0
-4.10066 15.0209 0
-13.3748 17.5675 0
-10.5469 17.8195 0
-0.0253613 17.4987 0
-0.246818 17.3723 0
8.0457 13.3303 0
7.63329 14.1555 0
8.93285 11.655 0
7.88556 12.9852 0
-11.1883 20.0906 0
-13.5974 19.7057 0
-2.69848 16.7184 0
-1.73348 17.9608 0
1.74169 16.9225 0
3.70272 16.955 0
6.61676 14.2753 0
6.40011 14.7092 0
-7.75424 18.3366 0
-7.52814 18.6544 0
-9.47725 16.1176 0
-6.76532 16.1431 0
4.27618 15.8576 0
4.96246 14.7617 0
-10.3564 22.679 0
-3.96414 18.2019 0
13.5265 25.2319 0
11.6092 25.0658 0
-12.4371 30.4085 0
-10.9918 29.4176 0
9.06991 17.6526 0
8.03721 16.3366 0
12.9428 20.2092 0
9.99748 20.5266 0
4.56644 18.1898 0
6.48185 19.1266 0
1.54855 19.1635 0
3.88845 18.5977 0
-0.257201 24.9017 0
-3.0374 23.7935 0
-3.0816 22.219 0
-4.60378 20.0709 0
-6.51944 15.7556 0
-4.27229 14.9408 0
-9.72407 21.2725 0
-8.39739 19.848 0
7.2798 24.1571 0
7.68869 21.1186 0
-13.3052 16.5981 0
-9.85051 16.7721 0
-9.82736 16.8197 0
-7.60267 17.5766 0
-0.0331529 19.3665 0
0.219005 19.0512 0
7.93048 32.7917 0
2.33279 22.238 0
11.3097 32.8498 0
10.0509 31.7949 0
-13.871 24.5036 0
-11.5577 24.1957 0
-5.65005 17.0547 0
-5.3805 18.0261 0
8.65481 18.2532 0
7.44248 18.0437 0
1.63811 17.0773 0
2.18643 18.133 0
10.7473 16.7432 0
13.4635 16.9879 0
12.8947 19.2764 0
9.06449 17.9245 0
-10.8845 24.8855 0
-4.55349 20.2879 0
-2.10091 18.8871 0
-3.61701 18.9038 0
3.84579 22.7978 0
4.56311 22.2427 0
-6.02664 18.7682 0
-5.75998 19.7201 0
4.589 17.8832 0
6.56709 17.0241 0
-1.72204 21.7945 0
0.00366122 22.9995 0
2.38252 28.4519 0
7.05058 31.3385 0
-4.09678 35.2947 0
-4.74966 36.6733 0
0.116135 35.8188 0
-1.74569 24.6564 0
-13.7431 22.5775 0
-11.4546 23.3283 0
-1.78748 19.3307 0
-3.64688 20.6779 0
-7.31968 21.76 0
-5.8525 21.7075 0
9.72321 29.4968 0
7.76948 30.3309 0
5.44156 20.8753 0
7.07888 21.5974 0
11.022 23.764 0
8.49063 23.3891 0
13.251 21.8688 0
10.9383 22.8078 0
-11.1168 28.084 0
-3.64178 21.8764 0
12.388 30.7356 0
10.6234 30.3963 0
2.65912 20.2991 0
3.95565 19.5711 0
-13.734 26.8264 0
-11.6833 26.8075 0
-0.841779 26.81 0
4.02577 23.9303 0
0.424016 20.5174 0
2.131 21.0057 0
-8.36673 19.9606 0
-7.00007 20.585 0
9.19643 19.4445 0
7.58116 19.9403 0
-1.3816 21.0042 0
-2.10243 20.0969 0
12.8873 19.3578 0
9.19803 19.4425 0
-1.95934 24.1174 0
-1.02728 22.8834 0
-5.60549 22.3392 0
-4.70963 22.6017 0
-4.11385 24.5301 0
-4.62339 24.2378 0
-13.5828 21.6098 0
-10.3856 22.3681 0
5.22843 24.3807 0
6.12939 23.665 0
0.345704 29.9839 0
1.70936 35.9362 0
-7.87938 22.8839 0
-7.29084 23.8667 0
0.78707 36.338 0
0.604304 38.0834 0
-7.10344 30.0842 0
-4.68879 30.6918 0
9.90186 22.1688 0
8.50572 22.8202 0
13.3872 26.7493 0
11.2704 26.4631 0
6.03249 22.8749 0
7.12936 22.0826 0
2.656 20.6449 0
4.48871 21.5576 0
3.36106 24.4817 0
3.75273 28.1205 0
5.38227 20.2652 0
6.52562 19.4252 0
1.86691 22.6558 0
2.17466 24.0665 0
13.0628 21.0326 0
9.98954 21.7342 0
-2.1464 33.175 0
-1.49286 31.2185 0
-9.10641 31.9291 0
-10.1407 33.1366 0
0.0318935 21.0162 0
0.556459 22.3357 0
-6.69946 23.8802 0
-6.07838 24.7518 0
-9.60693 21.7021 0
-7.32002 21.7575 0
6.89416 26.6203 0
8.87452 25.6168 0
-13.2403 28.8573 0
-11.4296 27.9351 0
-6.32182 25.4192 0
-5.73156 26.3344 0
3.12335 32.6199 0
6.0645 31.2109 0
-6.56586 32.6136 0
-6.04604 31.0631 0
6.55757 27.2556 0
4.78934 27.2466 0
2.99679 27.8883 0
1.87927 26.1052 0
-4.07469 25.4831 0
-3.4993 25.8083 0
5.50065 35.7769 0
6.4239 37.1783 0
0.409285 24.183 0
1.64641 24.5345 0
-8.51171 25.1234 0
-8.47549 25.7021 0
2.82965 34.0207 0
1.90797 34.371 0
-2.23054 25.4504 0
-1.50666 26.732 0
9.14572 31.9109 0
8.41932 30.4305 0
-2.4482 35.7989 0
-2.93821 37.3859 0
-3.04901 35.1486 0
-2.61353 33.3289 0
9.36749 25.2474 0
9.40022 24.0089 0
-8.31632 28.2112 0
-7.91209 26.0045 0
9.79011 29.0555 0
8.88711 27.0631 0
-0.246494 33.7106 0
0.61629 31.6029 0
-9.43096 23.2603 0
-9.59008 24.4871 0
10.1404 34.161 0
8.80832 32.6802 0
13.1872 28.0772 0
10.9897 27.8446 0
7.0685 33.6862 0
6.10185 32.9052 0
-0.625434 30.016 0
-0.306826 27.9621 0
-5.24727 34.0902 0
-6.33652 35.802 0
3.58168 25.7988 0
2.7399 26.4739 0
5.48408 29.5862 0
5.53481 27.6237 0
5.44425 25.5276 0
4.64754 26.2061 0
-3.60661 29.7378 0
-2.82146 29.9457 0
7.41062 25.0615 0
6.59058 25.8472 0
4.17999 29.3899 0
3.93302 32.4081 0
-8.03392 32.0088 0
-7.30467 30.1429 0
6.76313 34.7966 0
7.90835 36.1551 0
-6.41649 28.6068 0
-4.00408 28.1451 0
-4.73594 34.1367 0
-3.43077 32.8329 0
2.40382 31.9472 0
1.46358 32.2716 0
-11.4221 31.8106 0
-9.98802 30.5517 0
-8.72099 34.2516 0
-7.66873 32.6462 0
0.353824 34.17 0
1.21827 33.8233 0
[...]
CELL_DATA 897
SCALARS current_Length float
LOOKUP_TABLE default
0.881038
1.02509
1.481
1.47095
1.65254
1.46845
0.530999
1.02792
1.77512
1.10039
1.02733
1.22191
1.76641
1.48474
0.479751
0.16865
1.73782
1.02302
0.0354729
0.59729
0.563089
0.822936
0.289882
0.701807
1.29455
1.08374
0.780025
1.05451
0.918836
2.00876
0.404509
0.579575
1.8871
0.504706
1.33084
1.14504
0.772993
0.82997
1.07155
0.955783
1.32508
0.861279
2.02648
0.00249743
1.30337
1.58905
1.44904
0.950582
0.76135
0.983941
0.73836
0.79769
1.19693
1.56931
1.81717
1.00128
0.983154
1.56276
1.19934
1.44859
1.09825
0.634269
0.708387
0.516928
1.0912
0.852079
1.13905
2.16262
1.71678
1.49001
0.80643
1.13081
1.49787
0.891883
1.00569
0.783776
1.09291
1.73357
1.0089
1.14224
0.867667
1.8738
0.34698
0.65416
0.556013
0.564543
1.02029
0.00249992
1.41096
0.00248958
1.28161
1.74547
0.775243
0.71076
1.19729
1.66558
0.00251762
1.62638
0.295191
0.706392
1.31573
1.09248
0.559595
1.47318
0.220433
0.593405
1.39686
0.389589
0.851921
1.56783
1.01079
1.17395
1.02139
1.24506
1.03838
1.65513
0.764373
0.875883
1.36438
0.512442
0.60016
0.127277
1.16556
0.880054
0.631672
2.12983
0.702189
1.34465
2.28479
0.0261551
1.08688
1.06379
2.07254
1.32112
2.57628
0.926121
2.70603
1.10641
2.26729
2.28448
1.63929
3.14319
0.184576
3.23995
1.28154
2.10374
2.19304
0.810525
2.18276
2.06454
2.30112
0.579758
2.52201
3.39926
1.1177
2.55717
1.29489
2.44762
1.17636
2.04653
2.06673
1.39261
2.74788
0.940214
3.03651
0.707481
2.5757
2.65122
1.75384
2.82327
0.614084
2.76518
1.39316
2.06155
1.55303
1.93242
2.08463
1.02715
2.12709
1.02098
0.0100665
0.553519
3.88168
0.860049
1.05956
2.86917
1.49034
1.6684
1.32994
0.319174
1.08854
1.86189
1.85821
1.05161
1.00833
1.31253
1.20161
1.01765
1.59333
1.34828
1.26874
0.939619
1.08409
2.096
1.10014
1.53143
1.25525
0.435208
1.93056
0.00250229
1.76291
1.47345
1.33354
0.857088
1.61339
1.49939
0.643108
1.427
1.76316
1.66778
1.65445
1.89358
0.749371
1.12113
2.18042
0.473588
0.674347
2.46914
0.00249885
1.34794
1.60452
1.42988
1.80592
1.55047
0.671211
1.72386
2.72011
0.889327
1.8209
2.1581
0.695365
1.00492
1.45739
1.22332
1.09473
1.58285
0.527265
0.421763
3.01251
0.52777
0.881196
1.96325
0.613243
1.70215
2.85061
1.08596
0.960905
1.47459
0.743426
0.972536
2.67882
1.61026
0.814318
1.0567
0.156466
1.15156
1.7919
0.722262
1.73894
2.63488
2.08765
1.12739
2.02817
0.756531
1.85921
2.46926
1.16517
0.927777
1.79602
0.299839
1.04836
2.98337
1.39976
0.0435379
3.05311
1.49146
0.70202
2.09676
1.02423
0.659517
1.61819
0.892305
0.45436
3.21719
0.990543
1.05381
2.07625
1.17168
2.01284
0.923651
1.59388
1.79298
0.562679
1.98615
1.52309
0.916222
1.7804
0.637375
2.83026
0.930267
2.21777
1.88517
1.33054
1.61298
1.51529
1.17456
1.25825
0.857695
1.35864
1.38914
0.348672
0.545833
1.49995
0.675555
0.00251366
1.1017
3.45339
1.35356
1.03478
2.4751
1.02776
0.00252065
3.46726
0.537696
1.52687
2.93401
0.626565
1.06014
2.11601
1.45384
0.979984
2.05032
0.910383
1.79653
1.71436
1.52367
1.04307
1.1216
0.822032
1.90516
1.76096
0.927147
0.976557
2.66158
0.722427
1.59331
1.30982
0.647747
1.61012
1.18757
0.88698
0.528754
0.652395
0.735586
0.823341
3.33652
2.31538
2.22308
0.71906
1.47267
0.29088
1.44852
0.452516
1.12267
2.85081
1.27428
0.959582
1.71603
0.538974
0.991185
1.47652
0.769508
1.91842
2.4546
1.85056
1.52475
1.3047
2.10914
1.42738
0.36002
1.85036
0.735884
2.57497
0.864278
1.84405
2.62824
1.70171
0.00251147
1.21434
0.530859
0.617861
1.91425
1.01034
0.849759
1.43862
1.18792
1.06723
1.7245
1.52105
0.167438
2.41049
1.47844
1.21684
1.30292
0.724234
0.0955087
1.7379
0.943064
0.589375
2.98214
1.37046
1.59077
0.895112
0.323727
1.11805
2.17704
0.682557
0.695779
2.50673
1.5833
2.37287
1.68426
0.999242
0.959612
1.65414
0.918747
0.18937
0.968324
0.971872
1.23181
2.83914
1.24873
1.4243
0.255005
2.076
1.24479
0.9225
1.44783
0.38047
1.69303
0.7425
1.89428
2.43969
0.994636
1.59891
1.57311
0.980843
1.18049
1.9613
1.02357
1.54646
0.484942
0.775006
1.60302
0.390049
0.747044
0.45897
2.71205
1.86575
1.21772
1.29305
0.312275
1.50581
0.783044
1.52379
0.927962
1.92448
1.74685
1.33946
1.75242
0.271932
1.04231
1.67282
0.832164
0.887941
2.96235
0.307436
1.34381
2.13221
1.33428
0.791215
1.21194
1.43122
1.30432
1.50856
1.57513
1.09291
0.986964
0.660805
1.35952
2.39028
1.41884
2.15025
1.88766
1.25123
1.17449
1.56152
0.534548
0.753492
3.4591
0.0528781
1.32303
2.34991
0.996495
1.57159
0.403731
0.800856
0.980152
1.69885
1.75679
0.912594
1.6423
1.93033
0.873461
2.3337
1.88439
1.42724
1.00806
1.30756
1.44757
1.23029
0.186234
1.76431
1.18962
0.636768
1.032
2.72717
0.0817413
0.525205
4.06179
0.963845
0.222694
1.35436
0.543164
1.52839
1.51619
1.61325
0.689077
0.907051
0.984017
1.20824
0.988571
1.28334
0.48788
2.15659
1.41355
0.863793
1.03745
0.97167
0.718953
0.79077
0.848363
1.9466
1.52535
0.885378
0.579859
1.66586
0.980882
1.27574
2.40851
1.75469
0.656667
0.828404
0.00250825
1.92425
1.46812
1.27257
1.23771
1.60375
0.612958
0.775355
1.78949
1.4281
1.43383
1.64012
1.86344
0.843748
2.49605
0.346392
1.19844
1.63837
2.37335
1.51131
1.79691
1.58844
0.975724
1.48697
1.24712
1.18675
2.05072
1.2841
1.14671
1.58789
1.23844
0.636977
1.77544
0.116758
1.51187
1.50253
1.34638
1.1832
1.68965
0.860495
1.65014
1.1588
0.853149
0.00250087
3.69021
1.12566
1.29173
1.54639
0.678315
1.29092
0.933538
0.209602
0.960418
0.58738
0.0100475
1.02459
3.28593
1.2842
0.796089
1.15059
1.14788
0.694446
1.07937
1.25558
0.591539
1.14551
1.00599
1.76197
1.75495
1.62937
1.44264
1.11529
1.21761
0.569148
1.54063
1.34292
0.979287
2.13603
1.59959
0.487807
1.35305
0.345815
1.17196
2.0474
0.863642
0.994299
1.33541
1.58654
0.301859
1.41874
0.625812
1.25695
1.44388
0.857076
0.443337
3.15236
0.491828
1.03266
1.73814
1.0684
1.38945
1.58989
0.634475
1.34898
1.41994
1.88986
1.54308
1.07019
0.445361
1.21539
2.28759
1.16713
0.913856
1.29083
2.09009
1.15584
2.03205
0.710443
1.43549
1.08906
0.486833
1.72526
0.258505
1.10335
1.44094
1.63532
0.857651
1.35576
1.08699
0.833644
1.52953
0.936299
0.953861
1.31829
0.66094
0.750872
1.80291
1.67822
1.25114
0.705682
1.28607
1.75208
1.69456
0.579904
1.23667
1.57782
0.985998
0.930264
0.669438
1.47195
0.840024
0.657437
1.64896
1.01182
1.78081
1.66095
1.0579
0.955957
1.87112
0.615982
1.10063
1.23901
0.558747
0.639395
1.55889
0.446288
2.04157
1.11703
1.02542
1.07111
1.69347
1.59659
1.25207
1.23708
1.44076
0.884895
1.99183
1.9384
0.993997
2.20978
1.08369
0.836915
1.24268
1.48271
1.2703
1.01428
1.32267
1.8103
2.02902
1.14105
1.43757
1.07907
1.3394
0.835397
1.65373
1.19002
1.05014
1.04646
1.64149
1.27678
0.812208
1.56566
0.83058
1.13564
1.31879
1.23604
0.956495
1.07544
0.920747
2.00342
1.1517
1.55335
1.77681
1.75785
0.866916
0.996501
0.513445
0.823201
1.84483
0.984995
0.880715
0.994599
1.73089
0.865464
1.90825
1.80514
0.734579
1.91948
0.75592
1.57099
0.931368
1.94415
1.35182
0.392788
1.29938
1.43191
0.822783
0.957567
1.30297
1.50467
0.937979
0.902334
0.940459
0.983787
1.11458
1.45075
0.990005
0.603199
1.47813
1.83486
0.930592
1.69741
1.86418
1.29961
1.22514
0.681385
0.269289
1.62074
0.458705
1.18442
1.53208
0.840654
0.985716
1.28412
2.04356
1.77093
1.06701
0.444659
0.900554
1.21795
1.23939
1.3799
0.904718
1.07971
0.647197
2.66969
0.961518
0.436573
1.58938
1.15113
1.83498
1.73036
0.838458
0.892808
2.33724
0.579037
1.04609
1.85477
1.28823
1.63391
0.905679
1.74874
1.39678
1.02554
1.51204
1.21579
1.50593
0.533658
1.42122
1.80107
0.744241
1.58117
1.68904
1.45495
0.559054
2.31869
0.712352
0.405136
1.82178
1.08081
0.573266
1.61536
3.29302
3.28017
3.27406
166
232
3.25391
3.34442
3.41603
0
265
97
116

SCALARS edge_force float
LOOKUP_TABLE default
0.5
0.5
0.5
0.5
0.5
0.5
0.5
0.5
0.5
0.5
0.5
0.5
0.5
0.5
0.5
0.5
0.5
0.5
0.5
0.5
0.5
0.5
0.5
0.5
0.5
0.5
0.5
0.5
0.5
0.5
0.5
0.5
0.5
0.5
0.5
0.5
0.5
0.5
0.5
0.5
0.5
0.5
0.5
0.5
0.5
0.5
0.5
0.5
0.5
0.5
0.5
0.5
0.5
0.5
0.5
0.5
0.5
0.5
0.5
0.5
0.5
0.5
0.5
0.5
0.5
0.5
0.5
0.5
0.5
0.5
0.5
0.5
0.5
0.5
0.5
0.5
0.5
0.5
0.5
0.5
0.5
0.5
0.5
0.5
0.5
0.5
0.5
0.5
0.5
0.5
0.5
0.5
0.5
0.5
0.5
0.5
0.5
0.5
0.5
0.5
0.5
0.5
0.5
0.5
0.5
0.5
0.5
0.5
0.5
0.5
0.5
0.5
0.5
0.5
0.5
0.5
0.5
0.5
0.5
0.5
0.5
0.5
0.5
0.5
0.5
0.5
0.5
0.5
0.5
0.5
0.5
0.5
0.5
2
0.5
2
0.5
2
0.5
0.5
2
0.5
2
0.5
2
0.5
0.5
2
0.5
2
0.5
2
0.5
0.5
2
0.5
2
0.5
2
0.5
0.5
2
0.5
2
0.5
2
0.5
0.5
2
0.5
2
0.5
2
0.5
2
2
2
2
2
2
2
0.5
0.5
2
0.5
0.5
0.5
0.5
0.5
0.5
0.5
0.5
0.5
0.5
0.5
0.5
0.5
0.5
0.5
0.5
0.5
0.5
0.5
0.5
0.5
0.5
0.5
0.5
0.5
0.5
0.5
0.5
0.5
0.5
0.5
0.5
0.5
0.5
0.5
0.5
0.5
0.5
0.5
0.5
0.5
0.5
0.5
0.5
0.5
0.5
0.5
0.5
0.5
0.5
0.5
2
0.5
0.5
2
0.5
0.5
0.5
0.5
0.5
0.5
0.5
0.5
0.5
0.5
0.5
0.5
0.5
0.5
2
0.5
0.5
0.5
0.5
2
0.5
0.5
0.5
0.5
0.5
0.5
0.5
0.5
0.5
2
0.5
2
0.5
0.5
0.5
2
0.5
0.5
0.5
0.5
0.5
2
0.5
2
0.5
0.5
2
0.5
0.5
0.5
0.5
0.5
2
0.5
0.5
0.5
0.5
0.5
0.5
0.5
0.5
0.5
0.5
0.5
0.5
0.5
0.5
2
0.5
0.5
0.5
0.5
0.5
0.5
0.5
0.5
0.5
0.5
0.5
0.5
0.5
0.5
0.5
0.5
0.5
0.5
2
0.5
0.5
2
0.5
2
0.5
0.5
2
0.5
0.5
0.5
0.5
0.5
0.5
0.5
0.5
0.5
0.5
0.5
0.5
0.5
0.5
0.5
0.5
0.5
2
0.5
0.5
0.5
0.5
0.5
0.5
0.5
0.5
0.5
0.5
0.5
2
0.5
0.5
0.5
0.5
0.5
0.5
0.5
0.5
0.5
2
0.5
0.5
0.5
0.5
0.5
0.5
0.5
0.5
2
0.5
0.5
0.5
0.5
0.5
0.5
0.5
2
0.5
0.5
0.5
2
0.5
0.5
0.5
0.5
0.5
0.5
0.5
0.5
0.5
0.5
0.5
0.5
0.5
2
0.5
0.5
0.5
0.5
0.5
0.5
0.5
0.5
2
0.5
0.5
0.5
0.5
0.5
0.5
0.5
0.5
0.5
0.5
0.5
0.5
2
0.5
0.5
0.5
0.5
0.5
0.5
0.5
2
0.5
0.5
0.5
0.5
0.5
0.5
0.5
0.5
0.5
0.5
0.5
0.5
2
0.5
0.5
0.5
0.5
0.5
0.5
0.5
0.5
0.5
0.5
0.5
0.5
0.5
0.5
0.5
0.5
0.5
0.5
0.5
0.5
0.5
0.5
2
0.5
0.5
2
0.5
0.5
0.5
0.5
0.5
2
0.5
0.5
0.5
0.5
0.5
0.5
0.5
0.5
0.5
0.5
0.5
0.5
0.5
0.5
0.5
0.5
0.5
0.5
0.5
0.5
0.5
0.5
0.5
2
0.5
0.5
0.5
0.5
0.5
0.5
0.5
0.5
0.5
0.5
0.5
2
0.5
0.5
2
0.5
0.5
0.5
0.5
0.5
0.5
0.5
0.5
0.5
0.5
0.5
0.5
2
0.5
2
0.5
0.5
0.5
0.5
0.5
0.5
0.5
0.5
0.5
0.5
0.5
0.5
0.5
0.5
0.5
0.5
0.5
0.5
0.5
0.5
0.5
0.5
0.5
0.5
2
0.5
0.5
0.5
0.5
2
0.5
0.5
0.5
0.5
0.5
0.5
0.5
0.5
0.5
0.5
0.5
0.5
0.5
0.5
0.5
0.5
0.5
2
0.5
0.5
0.5
0.5
0.5
2
0.5
0.5
0.5
0.5
0.5
2
0.5
0.5
0.5
0.5
0.5
0.5
0.5
0.5
0.5
0.5
0.5
0.5
0.5
0.5
0.5
0.5
0.5
2
0.5
0.5
0.5
0.5
0.5
0.5
0.5
0.5
0.5
0.5
0.5
2
0.5
0.5
0.5
0.5
0.5
0.5
0.5
0.5
0.5
0.5
0.5
0.5
2
0.5
0.5
0.5
0.5
0.5
0.5
0.5
2
0.5
0.5
0.5
0.5
0.5
0.5
0.5
0.5
0.5
0.5
0.5
0.5
0.5
0.5
0.5
0.5
0.5
2
0.5
0.5
0.5
0.5
0.5
0.5
2
0.5
0.5
0.5
0.5
0.5
0.5
0.5
0.5
0.5
0.5
0.5
0.5
0.5
2
0.5
0.5
0.5
0.5
0.5
0.5
0.5
0.5
0.5
0.5
0.5
0.5
0.5
0.5
0.5
0.5
0.5
0.5
0.5
0.5
0.5
2
0.5
0.5
0.5
0.5
0.5
0.5
0.5
0.5
0.5
0.5
0.5
0.5
0.5
0.5
0.5
0.5
0.5
2
0.5
0.5
0.5
0.5
0.5
0.5
0.5
0.5
0.5
0.5
0.5
0.5
0.5
0.5
0.5
0.5
0.5
0.5
0.5
2
0.5
0.5
2
0.5
0.5
0.5
0.5
0.5
0.5
0.5
0.5
0.5
2
0.5
0.5
0.5
0.5
0.5
0.5
0.5
0.5
0.5
0.5
0.5
0.5
0.5
0.5
0.5
0.5
0.5
0.5
0.5
0.5
0.5
0.5
0.5
2
0.5
0.5
0.5
0.5
0.5
0.5
0.5
0.5
0.5
0.5
2
0.5
0.5
2
0.5
0.5
0.5
0.5
0.5
0.5
0.5
0.5
0.5
0.5
0.5
0.5
0.5
0.5
0.5
0.5
0.5
0.5
0.5
0.5
0.5
0.5
0.5
2
0.5
0.5
0.5
0.5
0.5
0.5
0.5
0.5
0.5
0.5
0.5
0.5
0.5
0.5
0.5
0.5
0.5
0.5
0.5
0.5
0.5
0.5
0.5
2
0.5
0.5
0.5
0.5
0.5
0.5
2
0.5
2
0.5
0.5
0.5
0.5
0.5
0.5
0.5
0.5
0.5
0.5
0.5
0.5
0.5
0.5
0.5
0.5
0.5
0.5
0.5
0.5
2
0.5
0.5
0.5
0.5
0.5
0.5
0.5
0.5
0
0
0
0
0
0
0
0
0
0
0
0
