# vtk DataFile Version 3.0
2D-vertex
ASCII
DATASET UNSTRUCTURED_GRID

POINTS 228 float
0.337377 -2.31429 0
3.15079 -1.93191 0
3.46301 -1.07187 0
2.48026 -0.132439 0
-0.0913496 -0.0237062 0
-0.828429 -1.32895 0
4.1955 -0.978332 0
4.7058 -0.0429544 0
3.80335 1.1656 0
2.57537 0.725354 0
1.32807 1.70822 0
-0.545575 2.30129 0
-1.34688 1.13611 0
-1.70302 1.07451 0
-2.20824 -0.207983 0
-1.77184 -1.03761 0
5.31915 -0.122299 0
6.24039 1.00232 0
4.36963 1.98056 0
3.96355 1.8406 0
3.192 2.5538 0
1.86592 2.37551 0
1.2287 5.4804 0
0.0462603 5.38617 0
-0.632414 3.68593 0
-2.0714 3.14059 0
-2.15027 1.56903 0
-3.6174 1.38884 0
-4.05997 0.713549 0
-3.82116 0.000605974 0
7.3723 1.19674 0
8.00417 2.32313 0
7.52214 3.45093 0
5.44673 3.82388 0
6.03081 4.68516 0
3.49926 5.16256 0
2.69201 6.07712 0
1.62141 6.09623 0
0.481445 9.03451 0
-0.951252 9.06348 0
-0.787178 6.16723 0
-2.59157 5.57385 0
-3.58521 4.53237 0
-4.75993 4.80607 0
-5.46288 3.97527 0
-6.90813 4.01633 0
-7.28099 3.28362 0
-5.79203 1.33888 0
8.02056 4.65002 0
7.64577 5.29145 0
7.1639 5.38099 0
5.98526 7.16901 0
3.57849 7.35982 0
3.29155 8.11584 0
1.7248 9.28302 0
2.2464 10.3474 0
-1.66105 10.6978 0
-1.72712 9.63434 0
-3.02213 8.8357 0
-3.01829 6.6995 0
-4.56622 7.63784 0
-5.98157 7.06677 0
-7.99657 6.60907 0
-8.1052 5.79668 0
8.43046 6.06776 0
8.40646 6.4191 0
6.8418 7.66379 0
6.50683 9.28853 0
5.23419 9.61535 0
4.93356 10.8847 0
4.00928 11.2102 0
3.03564 12.2768 0
-1.52123 12.8915 0
-2.32452 12.5946 0
-4.2743 12.0283 0
-4.05962 10.8732 0
-5.54585 10.0193 0
-5.58608 9.3155 0
-8.53795 7.83683 0
-8.6046 7.05728 0
9.55289 7.15271 0
9.42611 8.6167 0
8.50808 9.47784 0
9.07473 10.145 0
7.94714 11.7362 0
7.59005 12.8898 0
2.18208 14.5964 0
1.98398 15.2909 0
-1.45679 15.8986 0
-1.89586 15.1578 0
-7.07414 13.8761 0
-7.35413 12.6972 0
-8.02804 12.3952 0
-7.98295 10.74 0
-9.12246 9.77049 0
-9.23347 8.32425 0
4.04458 -3.58047 0
5.37484 -2.87149 0
6.38016 -2.256 0
8.76849 -0.0973591 0
9.86145 1.73737 0
10.7057 4.55244 0
10.8712 5.29754 0
11.2057 6.81401 0
11.1455 9.16133 0
10.868 10.3977 0
8.65215 14.0407 0
3.24525 17.3397 0
-2.11642 17.8169 0
-8.03629 14.9178 0
-9.37665 13.3309 0
-10.7666 10.3401 0
-10.9661 8.015 0
-10.6317 6.37226 0
-10.2179 5.04201 0
-9.40603 2.74787 0
-7.63281 -0.0320574 0
-5.41874 -1.89686 0
-3.0841 -3.15854 0
0.129733 -4.07819 0
6.14871 15.9529 0
5.01988 14.2399 0
-4.89728 16.8997 0
-4.17319 15.2298 0
-0.451073 3.46227 0
1.15595 3.64462 0
-2.0044 5.40445 0
-1.51999 3.70734 0
4.91608 5.71088 0
5.018 6.77715 0
0.322605 10.8467 0
0.0498523 9.42195 0
-1.33735 7.42763 0
-2.58484 7.33445 0
5.98505 7.17151 0
4.6215 8.80666 0
3.84792 8.86927 0
3.20085 10.3193 0
1.86489 11.915 0
1.61347 11.1937 0
-2.47983 11.2418 0
-3.57125 10.6286 0
-3.51188 9.07362 0
-4.42862 8.56607 0
1.40574 1.34242 0
-0.123856 0.18497 0
6.72087 3.3992 0
5.95266 1.38458 0
5.44419 3.8299 0
3.48381 4.14592 0
-4.68529 14.4977 0
-3.71817 12.804 0
3.30823 4.0255 0
1.72109 4.49206 0
-8.01746 10.2917 0
-7.09762 8.93704 0
-0.964771 -1.38589 0
-1.40906 -3.78799 0
-0.256217 16.0491 0
-0.0268755 18.0076 0
1.30015 -1.89957 0
1.36967 -0.659091 0
2.34713 8.2157 0
1.29717 6.92193 0
5.41332 13.318 0
3.90894 11.7945 0
0.45116 15.3784 0
0.809532 13.1373 0
-3.06657 -0.413745 0
-3.87471 -2.78499 0
-5.02432 2.75424 0
-5.83924 1.99161 0
-6.25455 -1.29561 0
-5.05428 0.688534 0
0.296573 7.31814 0
-0.694383 6.83922 0
8.65249 8.92338 0
7.43496 7.52024 0
6.11084 0.440089 0
7.82061 -1.11843 0
1.89122 -4.1312 0
1.85307 -2.30572 0
-6.82829 2.29715 0
-8.44407 0.982702 0
-5.99904 5.73343 0
-7.28665 5.12001 0
7.90536 3.82113 0
10.2908 2.91822 0
-10.2106 11.8116 0
-8.00782 10.724 0
9.93288 12.5412 0
8.58807 11.5507 0
-3.30008 3.52986 0
-4.16243 2.58037 0
-9.81971 3.89118 0
-7.40444 4.61948 0
-3.84014 6.73272 0
-4.90947 5.31198 0
-6.51245 8.72727 0
-6.45473 7.36526 0
7.12679 9.86537 0
6.94253 10.8533 0
-0.315446 12.0807 0
-0.335212 11.3467 0
4.40687 16.8672 0
3.88038 15.6008 0
2.17959 14.5966 0
1.05469 13.1199 0
5.75947 11.45 0
6.17059 12.9831 0
-6.21421 10.5703 0
-5.99711 11.7225 0
-1.19044 14.0972 0
0.121992 14.2885 0
-2.87037 14.9831 0
-2.78108 12.9878 0
6.0103 13.2714 0
7.32169 15.1452 0
-2.6557 15.2311 0
-3.43771 17.4401 0
-6.45017 16.1091 0
-5.50238 14.5241 0
1.37681 17.8557 0
1.11244 15.6641 0
4.71193 14.2776 0
3.15309 13.1554 0
-5.81953 13.9911 0
-5.18262 12.2842 0

CELLS 342 1026
2 160 0
2 1 2
2 2 3
2 161 4
2 4 5
2 5 0
2 2 6
2 6 7
2 7 8
2 8 9
2 3 9
2 9 144
2 10 11
2 11 12
2 145 4
2 12 13
2 13 14
2 15 14
2 5 156
2 7 16
2 17 178
2 147 17
2 19 18
2 19 8
2 20 19
2 21 20
2 10 21
2 153 125
2 23 22
2 24 23
2 24 124
2 127 24
2 26 25
2 26 13
2 27 26
2 28 27
2 29 28
2 14 168
2 30 17
2 30 31
2 32 31
2 32 146
2 18 33
2 33 148
2 128 35
2 20 152
2 35 36
2 37 36
2 22 37
2 37 163
2 38 131
2 175 40
2 40 23
2 126 40
2 42 41
2 25 192
2 43 42
2 43 44
2 193 27
2 45 44
2 46 45
2 47 171
2 173 47
2 48 186
2 48 49
2 49 50
2 34 50
2 50 51
2 52 129
2 36 52
2 52 53
2 53 162
2 54 38
2 55 54
2 139 55
2 57 56
2 39 57
2 58 57
2 59 133
2 41 59
2 59 196
2 61 60
2 197 43
2 199 61
2 62 63
2 195 185
2 49 64
2 64 65
2 177 65
2 51 134
2 67 66
2 68 67
2 53 136
2 69 68
2 70 69
2 55 137
2 165 70
2 138 71
2 73 72
2 140 56
2 215 73
2 75 74
2 58 142
2 76 75
2 77 76
2 60 143
2 77 198
2 78 79
2 79 62
2 65 80
2 80 81
2 81 176
2 67 200
2 82 83
2 83 191
2 69 208
2 84 85
2 164 216
2 225 71
2 86 206
2 158 88
2 89 88
2 212 89
2 214 218
2 90 91
2 91 211
2 91 92
2 92 93
2 93 210
2 189 93
2 94 95
2 95 78
2 96 1
2 96 97
2 97 6
2 97 98
2 16 98
2 179 99
2 99 30
2 31 100
2 187 101
2 101 48
2 101 102
2 102 64
2 102 103
2 103 80
2 81 104
2 104 105
2 83 105
2 105 190
2 85 106
2 217 120
2 87 107
2 88 108
2 219 122
2 109 90
2 109 110
2 92 110
2 110 188
2 111 94
2 95 112
2 112 113
2 113 79
2 113 114
2 63 114
2 114 194
2 115 46
2 116 47
2 116 172
2 117 29
2 169 118
2 118 15
2 157 119
2 0 119
2 119 180
2 99 100
2 103 104
2 159 108
2 111 112
2 183 116
2 120 204
2 121 224
2 120 121
2 122 220
2 150 123
2 123 122
2 124 11
2 125 21
2 124 125
2 41 126
2 127 25
2 126 127
2 34 128
2 129 51
2 128 129
2 203 130
2 131 39
2 130 131
2 39 132
2 133 58
2 132 133
2 134 66
2 135 68
2 134 135
2 136 135
2 137 70
2 136 137
2 207 138
2 130 139
2 139 138
2 73 140
2 141 75
2 140 141
2 142 141
2 143 77
2 142 143
2 144 10
2 145 12
2 144 145
2 146 33
2 147 18
2 146 147
2 148 34
2 149 35
2 148 149
2 150 221
2 74 151
2 151 150
2 152 149
2 153 22
2 152 153
2 94 154
2 155 78
2 154 155
2 156 15
2 157 118
2 156 157
2 223 87
2 107 222
2 159 158
2 181 160
2 161 3
2 160 161
2 162 54
2 163 174
2 162 163
2 164 121
2 71 165
2 165 164
2 158 166
2 202 167
2 213 166
2 168 29
2 169 117
2 168 169
2 44 170
2 171 182
2 170 171
2 172 117
2 173 28
2 172 173
2 174 38
2 175 132
2 174 175
2 176 82
2 177 66
2 176 177
2 178 16
2 179 98
2 178 179
2 180 96
2 181 1
2 180 181
2 182 46
2 183 115
2 182 183
2 61 184
2 185 63
2 184 185
2 186 32
2 187 100
2 186 187
2 188 111
2 189 154
2 188 189
2 190 106
2 191 84
2 190 191
2 192 42
2 193 170
2 192 193
2 194 115
2 195 45
2 194 195
2 196 60
2 197 184
2 196 197
2 198 155
2 199 62
2 198 199
2 200 82
2 201 84
2 200 201
2 72 202
2 203 56
2 202 203
2 204 107
2 205 86
2 204 205
2 206 87
2 207 167
2 206 207
2 208 201
2 209 85
2 208 209
2 210 76
2 227 74
2 210 211
2 72 212
2 213 167
2 212 213
2 123 214
2 215 151
2 214 215
2 216 209
2 217 106
2 216 217
2 218 89
2 219 108
2 218 219
2 220 109
2 221 226
2 220 221
2 222 159
2 223 166
2 222 223
2 224 205
2 225 86
2 224 225
2 226 90
2 227 211
2 226 227

CELL_TYPES 342
3
3
3
3
3
3
3
3
3
3
3
3
3
3
3
3
3
3
3
3
3
3
3
3
3
3
3
3
3
3
3
3
3
3
3
3
3
3
3
3
3
3
3
3
3
3
3
3
3
3
3
3
3
3
3
3
3
3
3
3
3
3
3
3
3
3
3
3
3
3
3
3
3
3
3
3
3
3
3
3
3
3
3
3
3
3
3
3
3
3
3
3
3
3
3
3
3
3
3
3
3
3
3
3
3
3
3
3
3
3
3
3
3
3
3
3
3
3
3
3
3
3
3
3
3
3
3
3
3
3
3
3
3
3
3
3
3
3
3
3
3
3
3
3
3
3
3
3
3
3
3
3
3
3
3
3
3
3
3
3
3
3
3
3
3
3
3
3
3
3
3
3
3
3
3
3
3
3
3
3
3
3
3
3
3
3
3
3
3
3
3
3
3
3
3
3
3
3
3
3
3
3
3
3
3
3
3
3
3
3
3
3
3
3
3
3
3
3
3
3
3
3
3
3
3
3
3
3
3
3
3
3
3
3
3
3
3
3
3
3
3
3
3
3
3
3
3
3
3
3
3
3
3
3
3
3
3
3
3
3
3
3
3
3
3
3
3
3
3
3
3
3
3
3
3
3
3
3
3
3
3
3
3
3
3
3
3
3
3
3
3
3
3
3
3
3
3
3
3
3
3
3
3
3
3
3
3
3
3
3
3
3
3
3
3
3
3
3
3
3
3
3
3
3
3
3
3
3
3
3
3
3
3
3
3
3
3
3
3
3
3
3

CELL_DATA 342
SCALARS current_Length float
LOOKUP_TABLE default
1.04829
0.914958
1.35953
1.5932
1.49898
1.52643
0.738442
1.06552
1.50831
1.30451
0.863051
1.32242
1.96526
1.41411
0.211193
0.361425
1.37841
0.937405
0.147754
0.618461
0.576965
0.478444
0.42952
0.693753
1.05069
1.33802
0.857067
1.0186
1.18619
1.83069
0.287937
0.887838
1.57354
0.666776
1.47816
0.807394
0.751874
0.882646
1.14849
1.29152
1.22649
0.802942
2.13494
0.00653099
1.51923
1.47628
1.21986
1.07077
0.730389
0.887077
0.579988
0.678363
1.14222
1.43648
1.43944
1.28887
1.20618
1.08829
1.31026
1.44583
0.822124
0.654428
0.983483
0.836856
0.742901
0.49012
1.32969
2.14154
1.55296
1.55922
0.808638
0.949681
1.26794
1.18531
1.05682
1.06547
0.963252
1.52147
0.768793
1.20382
0.822521
1.52622
0.527544
0.559442
0.81962
0.514203
1.10382
0.352161
1.46844
0.00250434
1.65891
1.31393
0.936592
1.30446
0.979911
0.95486
0.592861
1.22538
0.856388
0.983051
0.602543
1.17485
0.544484
1.71408
0.704927
0.938378
1.09735
0.782392
0.755379
1.36106
1.46947
0.832191
0.84682
0.875321
1.48754
1.00087
1.20755
0.598802
0.886404
0.00250394
1.20996
0.861168
1.27379
0.327997
1.21164
1.67083
0.738498
1.65578
1.77687
0.0295878
1.4505
0.849309
1.87527
1.50739
2.23045
1.17877
2.38295
1.39322
1.90368
1.94746
1.68605
2.68688
0.763262
2.55936
1.55292
1.68713
1.80362
1.26716
1.81097
2.3386
1.56612
1.42414
2.4059
2.02855
1.55642
1.41808
2.07724
1.64142
1.73318
1.73999
1.75998
1.67643
2.13971
1.39312
2.24345
1.21778
2.19153
2.2952
1.8698
2.48045
0.874419
2.49406
1.56591
1.77608
1.76228
2.1356
2.34809
2.09823
2.33364
1.29919
1.96722
0.310258
2.05144
1.74255
0.893464
1.82009
1.16482
1.4542
1.61733
0.611122
0.790732
1.76488
1.51484
1.04362
1.07113
0.826219
1.06335
1.45066
1.6808
1.56364
1.25097
0.988114
1.01457
2.12908
0.776111
1.20298
1.58788
1.45193
1.33668
0.763892
1.36165
0.546181
1.25188
1.55615
1.37889
1.04787
0.37395
1.54934
1.91817
1.34305
1.6915
2.15611
1.03711
1.01676
1.98569
0.817525
0.954458
1.95038
0.212906
1.1042
1.6543
1.22174
1.81246
1.63742
0.879012
1.78941
2.44284
0.948086
1.93838
1.97193
0.686068
1.22913
1.24242
1.23551
1.07619
1.66621
1.00236
0.997661
2.1411
0.974739
1.54341
1.13855
0.860872
1.78123
2.50517
1.29741
1.03517
1.11611
1.02961
0.994626
2.31895
1.7263
0.871569
1.10062
0.572958
0.610279
1.85774
0.97111
1.83548
2.3135
2.22268
1.35049
1.82587
1.08538
2.01027
2.08292
1.33345
1.06203
1.42627
0.532825
1.25649
2.55062
1.57298
0.432453
2.45664
1.97197
0.667241
1.67024
1.04227
0.879252
1.28264
1.21584
0.781097
2.52268
1.16036
1.16825
1.77819
0.621636
1.71729
1.36323
1.43463
1.33745
1.00497
1.45301
1.47612
0.734305
1.25404
1.9731
1.37141
0.721254
0.245779
1.85638
1.32504
1.42252
1.58722
0.866218
0.943686
1.17244
1.25026
1.34085
1.32631
1.32596
0.954943
1.99736
0.329914
1.72918
2.28708
0.763373
1.37396
2.34332
1.98365
0.620281
1.84673
1.41189
0.720319
2.20751
1.56279
1.73759
1.92076
1.25986
0.989392
1.82185

SCALARS edge_force float
LOOKUP_TABLE default
0.5
0.5
0.5
0.5
0.5
0.5
0.5
0.5
0.5
0.5
0.5
0.5
0.5
0.5
0.5
0.5
0.5
0.5
0.5
0.5
0.5
0.5
0.5
0.5
0.5
0.5
0.5
0.5
0.5
0.5
0.5
0.5
0.5
0.5
0.5
0.5
0.5
0.5
0.5
0.5
0.5
0.5
0.5
0.5
0.5
0.5
0.5
0.5
0.5
0.5
0.5
0.5
0.5
0.5
0.5
0.5
0.5
0.5
0.5
0.5
0.5
0.5
0.5
0.5
0.5
0.5
0.5
0.5
0.5
0.5
0.5
0.5
0.5
0.5
0.5
0.5
0.5
0.5
0.5
0.5
0.5
0.5
0.5
0.5
0.5
0.5
0.5
0.5
0.5
0.5
0.5
0.5
0.5
0.5
0.5
0.5
0.5
0.5
0.5
0.5
0.5
0.5
0.5
0.5
0.5
0.5
0.5
0.5
0.5
0.5
0.5
0.5
0.5
0.5
0.5
0.5
0.5
0.5
0.5
0.5
0.5
0.5
0.5
0.5
0.5
0.5
0.5
0.5
0.5
0.5
0.5
0.5
0.5
2
0.5
2
0.5
2
0.5
0.5
2
0.5
2
0.5
2
0.5
0.5
2
0.5
2
0.5
2
0.5
0.5
2
0.5
2
0.5
2
0.5
0.5
2
0.5
2
0.5
2
0.5
0.5
2
0.5
2
0.5
2
0.5
2
2
2
2
2
2
2
0.5
0.5
2
0.5
0.5
0.5
0.5
0.5
0.5
0.5
0.5
0.5
0.5
0.5
0.5
0.5
0.5
0.5
0.5
0.5
0.5
0.5
0.5
0.5
0.5
0.5
0.5
0.5
0.5
0.5
0.5
0.5
0.5
0.5
0.5
0.5
0.5
0.5
0.5
0.5
0.5
0.5
0.5
0.5
0.5
0.5
0.5
0.5
0.5
0.5
0.5
0.5
0.5
0.5
2
0.5
0.5
2
0.5
0.5
0.5
0.5
0.5
0.5
0.5
0.5
0.5
0.5
0.5
0.5
0.5
0.5
2
0.5
0.5
0.5
0.5
2
0.5
0.5
0.5
0.5
0.5
0.5
0.5
0.5
0.5
2
0.5
2
0.5
0.5
0.5
2
0.5
0.5
0.5
0.5
0.5
2
0.5
2
0.5
0.5
2
0.5
0.5
0.5
0.5
0.5
2
0.5
0.5
0.5
0.5
0.5
0.5
0.5
0.5
0.5
0.5
0.5
0.5
0.5
0.5
2
0.5
0.5
0.5
0.5
0.5
0.5
0.5
0.5
0.5
0.5
0.5
0.5
0.5
0.5
0.5
0.5
0.5
0.5
2
0.5
0.5
2
0.5
2
0.5
0.5
2
0.5
0.5
0.5
0.5
0.5
0.5
0.5
0.5
