# vtk DataFile Version 2.0
2D-vertex
ASCII
DATASET UNSTRUCTURED_GRID
POINTS 922 float
0.559541 -3.95016 0
3.00829 -3.74039 0
3.39636 -2.79087 0
2.36949 -1.72354 0
0.102723 -1.57927 0
-0.614767 -3.06961 0
3.92437 -2.7564 0
4.49726 -1.90113 0
3.56328 -0.386604 0
2.51738 -0.701661 0
1.34312 0.55708 0
-0.34456 1.03179 0
-1.10818 -0.244825 0
-1.26392 -0.283483 0
-1.78045 -1.9545 0
-1.27007 -2.83849 0
5.06827 -2.05739 0
5.87877 -1.17535 0
4.04185 0.359839 0
3.7725 0.292875 0
2.89457 1.25114 0
1.83018 1.16304 0
1.17455 4.79096 0
0.321413 4.76545 0
-0.498361 2.88578 0
-1.70719 1.97013 0
-1.62086 0.0643072 0
-2.91233 -0.228202 0
-3.4243 -1.26304 0
-3.12194 -1.97329 0
6.94672 -1.1616 0
7.5669 -0.436058 0
7.38693 0.876213 0
5.16904 2.04431 0
5.63629 2.62542 0
3.28874 3.95727 0
2.52261 5.2443 0
1.63812 5.40046 0
0.712641 8.5869 0
-0.874566 8.62664 0
-0.552665 5.57457 0
-2.05152 4.62883 0
-3.1016 3.07722 0
-4.05787 3.10915 0
-4.79406 1.69484 0
-6.20334 1.38358 0
-6.4882 0.317566 0
-4.97148 -1.03261 0
7.80713 1.50468 0
7.46097 2.54505 0
6.70777 2.96392 0
5.96304 5.02655 0
3.61354 6.21411 0
3.5402 7.08816 0
2.09123 8.70705 0
2.62664 9.41457 0
-1.84389 9.99952 0
-1.74462 9.0847 0
-2.98445 7.74013 0
-2.65216 5.58933 0
-4.28473 5.89177 0
-5.66641 4.56861 0
-7.58239 3.07034 0
-7.43803 2.53754 0
8.37487 2.95905 0
8.37482 2.96155 0
6.8766 5.00822 0
7.30518 6.21197 0
6.02863 7.48299 0
6.23582 8.16698 0
5.43814 9.18484 0
5.16423 9.69874 0
-2.56674 12.2979 0
-2.82594 11.9569 0
-6.00062 9.02494 0
-5.32931 8.24414 0
-6.04952 6.8634 0
-5.96712 6.70189 0
-8.56867 3.5748 0
-8.41744 3.22294 0
9.90475 3.27813 0
10.2149 4.23497 0
9.40462 5.21332 0
10.5684 5.64667 0
10.2503 7.1694 0
10.4327 7.88059 0
9.59509 12.5156 0
10.5922 14.6018 0
-9.58779 14.0291 0
-9.5875 14.0266 0
-9.97755 8.15904 0
-9.68417 7.64235 0
-10.025 7.00554 0
-9.28073 5.91543 0
-10.0917 4.65556 0
-9.6272 3.6771 0
3.94388 -5.58778 0
5.1421 -5.02449 0
5.9736 -4.60792 0
8.30308 -2.98061 0
9.57446 -1.5256 0
10.8713 0.831305 0
10.962 1.00315 0
11.6456 2.08687 0
12.4 4.0282 0
12.5968 4.81796 0
12.7159 8.34242 0
13.1848 15.0456 0
-13.1851 14.4645 0
-12.5798 8.10788 0
-12.4903 6.83143 0
-12.1053 4.29049 0
-11.2195 2.35576 0
-10.3507 1.26266 0
-9.73972 0.545949 0
-8.82046 -0.769005 0
-6.86644 -2.88357 0
-4.77483 -4.25808 0
-2.66116 -5.2243 0
0.351919 -5.99951 0
12.5547 9.82483 0
8.46359 9.97675 0
-12.8616 10.5646 0
-9.95844 11.4134 0
-0.244116 2.54899 0
1.04826 2.65925 0
-1.79882 4.59945 0
-1.03047 2.87337 0
4.5431 4.16957 0
4.93779 5.09619 0
0.401179 10.1917 0
0.185204 9.07746 0
-1.07142 6.9236 0
-2.25437 6.62002 0
5.96204 5.02883 0
5.10602 6.99896 0
4.12632 7.49161 0
4.12356 8.85703 0
2.09757 10.4377 0
2.09558 10.4361 0
-2.33202 10.2189 0
-3.89474 8.43592 0
-3.44798 7.75149 0
-4.41254 6.47629 0
1.46924 -0.0857347 0
0.0308246 -1.09755 0
6.561 1.11206 0
5.48711 -0.43947 0
5.16701 2.04577 0
3.13753 2.8365 0
-8.84827 9.80227 0
-5.81837 9.72115 0
3.13503 2.83654 0
1.6991 3.49887 0
-9.29519 5.85521 0
-7.88251 5.25464 0
-0.645454 -3.08574 0
-1.02644 -5.77659 0
14.9862 31.3019 0
17.4446 31.3986 0
1.36677 -3.597 0
1.45821 -2.14008 0
2.53623 7.46092 0
1.36987 6.42687 0
8.29006 9.49849 0
5.43834 9.18734 0
8.83805 20.2581 0
-0.0463959 12.1363 0
-2.56126 -2.22364 0
-3.23657 -4.98995 0
-4.21667 0.780353 0
-5.10017 -0.411207 0
-5.42525 -3.88561 0
-4.37942 -1.4215 0
0.442004 6.89035 0
-0.46749 6.4514 0
9.376 5.0711 0
7.79668 4.26071 0
5.70016 -1.71048 0
7.44719 -3.68303 0
1.90665 -6.04899 0
1.91595 -4.02183 0
-6.0499 -0.299016 0
-7.62821 -2.19698 0
-5.25884 3.47394 0
-6.57751 2.21781 0
7.64951 1.01086 0
10.1352 -0.634099 0
-12.3607 5.67935 0
-9.30554 5.87431 0
12.8499 6.86496 0
10.7567 6.6575 0
-2.66888 2.14285 0
-3.56939 0.775352 0
-9.31392 -0.019162 0
-6.56062 1.64802 0
-3.47958 5.39047 0
-4.22442 3.40066 0
-6.71537 5.44801 0
-6.291 4.65428 0
8.27338 6.38927 0
8.47434 6.87338 0
-0.866758 11.9725 0
-0.633721 10.8581 0
12.5591 9.83387 0
9.89 11.1094 0
9.75553 13.3991 0
1.78487 11.0055 0
7.85386 8.13908 0
9.06187 8.85822 0
-7.19465 6.95653 0
-7.53724 7.70572 0
-2.31623 14.27 0
0.681879 13.4499 0
-9.89515 11.9084 0
-4.04552 11.7904 0
9.06051 8.86033 0
12.5777 9.36994 0
-10.6865 13.0552 0
-13.239 13.4821 0
-12.6346 9.08432 0
-9.11063 9.36126 0
12.6421 17.7911 0
10.0173 16.0995 0
8.1359 10.4167 0
6.00536 10.5903 0
-9.11068 9.35873 0
-7.22711 8.67735 0
2.13749 13.9802 0
3.89146 12.3411 0
-4.33683 10.1997 0
-3.56966 9.54971 0
4.6107 12.0887 0
3.7137 10.5451 0
12.8949 11.5192 0
10.0936 11.6486 0
-2.93152 13.8427 0
-4.49003 12.7487 0
-13.4727 26.3544 0
-0.0539339 15.0551 0
-6.40967 10.2651 0
-4.3583 12.0023 0
-12.7148 9.79827 0
-9.30349 10.3964 0
5.71505 16.1578 0
7.89795 14.2334 0
-1.21062 13.8178 0
-0.694751 12.1777 0
-10.3297 17.2995 0
-13.5015 16.3225 0
16.2052 37.8113 0
2.0591 15.0707 0
-3.02643 16.4984 0
-10.2684 17.6917 0
-10.6417 12.3863 0
-13.0923 11.5943 0
-6.50602 14.0499 0
-5.94582 12.954 0
-6.28641 11.0106 0
-7.09784 11.939 0
13.1257 13.2167 0
10.5417 13.9593 0
-11.1562 18.8167 0
-14.1025 18.7975 0
5.79019 11.6918 0
4.61554 12.0707 0
9.94524 15.2747 0
7.95293 14.8121 0
3.71328 13.4879 0
6.35155 15.5314 0
-2.1356 15.7289 0
-0.628805 16.0494 0
14.0242 20.2387 0
11.3304 21.3198 0
0.0884902 15.0269 0
1.02667 15.7396 0
12.0704 23.0734 0
3.68065 15.6295 0
12.992 12.3521 0
9.88738 12.8841 0
-8.35567 13.534 0
-8.38021 12.6673 0
-9.20136 10.7352 0
-7.10106 11.5642 0
-9.90767 16.9055 0
-6.11895 15.8455 0
14.09 43.3407 0
14.9064 44.86 0
1.53598 13.3448 0
2.33891 11.8085 0
-3.92348 15.4782 0
-3.81488 14.2779 0
-13.3186 15.5513 0
-10.1043 16.2429 0
-0.356294 17.5851 0
-0.44332 17.5252 0
7.45394 12.591 0
7.02788 13.5007 0
8.37421 10.9286 0
7.31931 12.3128 0
-11.1031 18.2308 0
-13.7465 17.1502 0
-2.70482 16.497 0
-1.74295 17.9332 0
1.32227 16.861 0
2.95537 16.8509 0
5.99401 13.6654 0
5.71534 14.2674 0
-7.39209 17.1768 0
-7.17072 17.6209 0
-9.02633 14.7846 0
-6.32631 15.016 0
3.66157 15.5832 0
4.43338 14.3455 0
-10.5667 20.7619 0
-3.88056 17.7607 0
14.5397 21.2907 0
12.2317 22.2505 0
-16.4021 25.5551 0
-14.011 25.5917 0
8.12924 16.6108 0
7.26866 15.6297 0
12.6473 18.0661 0
8.95562 19.4186 0
3.72343 18.1441 0
5.52417 18.7975 0
0.996801 19.4963 0
3.10827 18.5966 0
-1.02183 25.4068 0
-3.64186 24.0556 0
-3.24424 22.3834 0
-4.50471 19.6497 0
-6.12876 14.746 0
-4.00808 14.1641 0
-9.75123 19.6691 0
-8.1963 18.5958 0
7.56993 23.395 0
6.87112 20.5826 0
-13.1982 14.8122 0
-9.37635 15.2974 0
-9.33677 15.4003 0
-7.13961 16.414 0
-0.342818 19.7224 0
-0.106346 19.421 0
14.632 30.403 0
2.04247 22.8686 0
16.9512 27.1106 0
14.8724 27.3991 0
-15.0691 20.8285 0
-12.3382 21.4864 0
-5.31733 16.2047 0
-5.14821 17.4366 0
7.61817 17.4356 0
6.46254 17.4177 0
1.09702 17.2253 0
1.69577 18.2965 0
10.1807 15.7465 0
13.0766 16.0244 0
12.6137 17.9101 0
8.13347 16.9336 0
-11.9419 22.453 0
-4.4847 19.9745 0
-2.23458 18.925 0
-3.52888 18.7875 0
3.53982 23.2496 0
4.14634 22.5817 0
-5.75437 17.9644 0
-5.63436 19.085 0
3.73189 17.6226 0
5.73699 16.6956 0
-1.97772 22.2431 0
-0.388035 23.5999 0
1.97127 28.3947 0
12.3027 30.3601 0
-11.3879 44.0246 0
-12.7461 44.9762 0
-5.41251 47.2472 0
-2.64064 24.9142 0
-14.297 19.1806 0
-12.0919 21.0336 0
-1.83522 19.6241 0
-3.54848 20.6144 0
-7.4218 20.6962 0
-5.91451 21.0029 0
13.1437 26.2884 0
11.7847 29.2368 0
4.71423 20.9346 0
6.35019 21.2667 0
11.2995 21.427 0
8.34391 22.2684 0
13.0567 18.741 0
11.0401 20.9453 0
-13.5762 24.6939 0
-3.80654 21.8199 0
16.2587 25.1797 0
14.4424 26.4485 0
2.11514 20.5547 0
3.2957 19.7779 0
-15.7181 22.4067 0
-13.5992 23.5793 0
-1.91341 27.0163 0
3.93133 24.4212 0
0.18198 21.0906 0
1.73594 21.4997 0
-8.18843 18.6999 0
-6.88145 19.6401 0
7.99192 18.5709 0
6.48063 19.4057 0
-1.51458 21.4608 0
-2.21247 20.3393 0
12.6111 17.9202 0
8.09957 18.242 0
-2.70805 24.5917 0
-1.45766 23.3701 0
-5.83175 21.5842 0
-4.84843 22.1826 0
-4.62019 24.2922 0
-5.20443 23.544 0
-14.1081 18.8059 0
-10.4983 20.3954 0
5.32861 24.4871 0
5.92237 23.3711 0
-0.325834 29.5975 0
4.92926 47.8598 0
-8.21951 21.6503 0
-7.90863 22.7338 0
2.2075 49.0439 0
2.04291 50.7053 0
-10.2568 27.9156 0
-8.04339 30.1433 0
9.45177 20.7182 0
8.22003 21.9343 0
15.0196 22.3026 0
12.5346 23.4449 0
5.64212 22.8101 0
6.50537 21.6569 0
2.15679 21.1567 0
3.89998 21.7541 0
3.31831 25.0271 0
5.25905 28.505 0
4.52825 20.2125 0
5.62358 19.1526 0
1.61227 23.2827 0
1.88003 24.5167 0
12.7681 18.3234 0
9.42834 20.5763 0
-6.01159 36.3164 0
-4.70667 31.8031 0
-13.973 27.9951 0
-16.575 27.7979 0
-0.221798 21.575 0
0.246777 22.9268 0
-7.30624 22.8927 0
-6.99116 23.6527 0
-9.74446 20.0427 0
-7.42169 20.6937 0
8.84913 25.7415 0
9.80857 23.9609 0
-16.2529 24.2449 0
-13.8253 24.3595 0
-7.42652 24.421 0
-7.42099 25.9975 0
4.51118 32.5214 0
8.62796 31.2892 0
-14.1418 30.0026 0
-9.92631 28.9016 0
8.69869 26.2243 0
5.74985 27.4299 0
2.39147 28.0177 0
1.33377 26.2695 0
-4.86026 26.061 0
-4.75489 26.1237 0
15.4678 42.26 0
16.6578 43.016 0
-0.129808 24.5953 0
1.21608 25.0677 0
-9.50144 23.6018 0
-9.63984 24.049 0
5.69944 37.4415 0
5.72834 43.0787 0
-3.33359 25.7798 0
-2.7803 26.8919 0
14.6257 27.8272 0
12.4145 28.0611 0
-9.06707 45.905 0
-9.81338 47.6647 0
-10.2435 44.5797 0
-7.46603 35.3615 0
10.0626 23.4391 0
9.62583 22.4879 0
-10.6555 26.0817 0
-9.12438 24.636 0
12.8836 25.7435 0
10.4904 25.3621 0
-2.42558 37.4242 0
-0.636853 31.15 0
-9.85977 21.5821 0
-10.3486 22.5909 0
17.2031 28.6522 0
15.1638 28.7648 0
15.4492 23.1673 0
13.1804 24.5408 0
15.9127 35.3985 0
12.7691 34.2918 0
-1.88325 29.5971 0
-1.50789 27.9481 0
-14.5504 35.6965 0
-16.4295 35.6305 0
3.40749 25.945 0
2.21768 26.7096 0
7.92325 30.2815 0
7.21541 27.2266 0
5.90423 25.1071 0
4.91047 26.0609 0
-6.12181 29.2214 0
-5.51802 29.8539 0
8.04829 24.1397 0
7.85818 24.6006 0
5.99331 30.1431 0
6.1828 32.6806 0
-13.8923 28.1701 0
-10.8895 27.7706 0
16.6727 37.467 0
18.523 37.9458 0
-8.89153 27.0186 0
-6.00001 28.5306 0
-12.7694 37.9092 0
-9.94173 33.9146 0
3.21934 31.8827 0
2.64307 32.2514 0
-16.4899 26.7286 0
-13.6919 26.7932 0
-16.6623 29.228 0
-14.6109 29.2611 0
0.0369173 40.5265 0
[...]
CELL_DATA 462
SCALARS cell_division_count float
LOOKUP_TABLE default
1
0
1
0
0
0
1
0
0
1
1
1
1
1
1
1
0
1
1
1
1
1
1
0
1
1
1
1
1
1
1
1
2
4
3
1
1
0
0
1
1
0
0
0
1
2
3
0
1
0
0
1
1
1
1
1
0
0
3
0
1
2
3
1
1
1
1
1
1
1
2
2
1
1
1
1
2
1
1
1
3
1
1
2
9
1
1
1
1
1
1
1
1
1
1
1
1
1
1
1
1
1
2
3
5
2
1
3
5
2
2
2
5
3
2
4
2
3
5
5
6
3
3
6
3
4
6
9
3
5
4
4
8
5
6
6
5
4
5
14
5
5
5
7
5
4
6
4
10
5
3
4
6
6
6
7
6
6
11
7
8
7
6
7
8
17
11
6
8
9
4
7
8
13
6
7
7
8
8
3
6
12
10
11
9
7
11
13
9
15
8
11
10
11
9
9
5
14
6
10
8
13
10
10
8
11
6
10
11
14
8
11
13
11
9
12
9
8
9
11
13
9
11
6
16
13
11
12
11
13
8
13
13
12
15
14
10
8
12
13
14
11
12
11
16
9
14
15
14
12
7
9
14
15
11
14
14
14
13
13
12
12
8
12
16
14
8
9
17
14
15
15
14
14
13
10
14
14
14
14
14
15
14
8
15
9
9
14
13
13
14
12
12
10
12
12
14
15
7
13
13
15
11
14
14
14
8
13
15
12
15
15
15
15
13
14
15
16
12
15
16
9
11
14
15
14
15
16
14
14
11
7
11
13
17
14
15
13
16
15
13
16
15
12
15
14
17
13
10
9
14
17
13
15
14
15
10
16
15
15
14
15
14
13
12
14
14
16
16
15
15
15
15
15
16
8
16
15
15
16
13
14
10
17
16
14
11
16
15
14
15
15
15
9
16
15
14
12
17
14
15
14
10
15
17
17
14
17
8
10
11
14
15
12
16
15
15
16
17
15
16
15
15
15
16
16
15
15
15
16
16
16
17
15
16
16
15
17
14
16
17
11
11
12
13
15
15
17
17
17
16
14
17
15
17
15
17
15
17
15
17
12
SCALARS cell_time float
LOOKUP_TABLE default
2291
2.22229e+13
2311
4.48239e+13
2.67348e+11
1.25633e+10
2321
2.68224e+09
9.19769e+11
2311
2311
2301
2271
2321
2241
2281
1.2283e+06
2321
2291
2321
2321
2221
2261
26103.4
2321
2321
2321
2321
2321
2211
2271
2211
2171
1911
2061
2161
2301
1.00108e+18
2.94533e+15
2271
2261
107403
3665.76
2377.34
2251
2151
1951
2368.01
2261
5019.01
2636.18
2241
2281
2291
2301
2271
1.12104e+13
23486.3
1741
4357.96
2271
2191
2011
2321
2321
2321
2321
2321
2321
2321
2201
2081
2321
2311
2311
2311
2141
2301
2301
2301
1441
2291
2291
2151
1071
2291
2281
2281
2271
2271
2271
2271
2271
2261
2261
2261
2251
2241
2241
2221
2211
2211
2201
2071
1891
2171
2161
2011
1791
2151
2151
2151
1441
1731
2141
1761
2081
2071
1801
1761
1651
2031
2011
1641
2011
1731
1741
1431
1951
1801
1931
1931
711
1741
1631
1661
1861
1641
1831
661
1801
1801
1791
1491
921
1761
1531
1511
1161
1741
1731
1731
1731
1721
1661
1461
1651
1641
1001
1071
991
1451
1041
1381
1451
91
1131
1531
1521
1071
1511
1491
1491
341
851
1321
1461
1181
1451
1441
1171
861
1311
1071
1391
1381
1011
801
491
1
1131
1181
1301
891
1071
871
1271
661
1251
1251
651
671
1221
1191
1181
1181
1171
1161
1141
681
1131
1121
401
1111
331
561
1071
851
1071
1071
791
1071
1061
1041
221
221
1011
1011
1001
781
991
541
531
501
501
701
931
151
911
901
71
901
521
301
81
871
661
511
201
861
551
641
221
541
61
541
541
541
611
781
601
601
231
561
181
281
711
711
1
701
131
91
681
481
671
151
671
661
661
11
661
181
661
651
521
461
641
521
521
611
161
601
591
581
561
561
181
411
551
551
541
541
151
541
541
541
351
531
261
521
121
111
521
261
521
341
511
231
501
501
81
491
491
321
141
481
1
71
311
151
61
451
211
441
31
421
411
401
211
121
391
161
381
371
191
371
11
351
351
191
351
31
341
141
341
81
171
101
151
321
321
171
311
41
61
141
281
181
141
261
111
261
131
261
141
231
231
231
231
221
221
221
221
1
101
121
211
211
11
201
41
191
191
191
181
181
181
181
81
171
171
171
171
171
71
21
161
11
151
151
151
151
151
1
21
141
11
141
11
131
131
131
121
121
121
121
41
111
111
101
101
101
91
91
81
81
81
81
71
71
71
61
61
61
41
41
41
31
31
21
21
11
11
11
11
11
11
1
1
1
1
1
SCALARS cell_area float
LOOKUP_TABLE default
3.2416
3.2997
3.29307
3.35566
3.35101
3.34331
3.32645
3.37411
3.34832
3.28136
3.33631
3.28194
3.38624
3.31894
3.30553
3.32947
3.39808
3.28866
3.3462
3.39739
3.39181
3.33915
3.33879
3.37154
3.3582
3.37583
3.43972
3.40214
3.39105
3.32896
3.24643
3.29661
3.35057
3.3364
3.44542
3.24913
3.34456
3.25228
3.26073
3.24824
3.23634
3.27744
3.26132
3.27791
3.21943
3.28382
3.25518
3.26227
3.25835
3.24747
3.2672
3.27279
3.21602
3.25673
3.24439
3.24184
3.20922
3.21656
3.26697
3.19541
3.24572
3.30583
3.268
3.28004
3.3369
3.28455
3.39872
3.35157
3.27961
3.35671
3.45205
3.3516
3.35667
3.28646
3.24813
3.27447
3.34121
3.35106
3.23064
3.22169
3.21985
3.25825
3.33497
3.33076
3.36948
3.22219
3.29617
3.25183
3.36986
3.28709
3.22414
3.20341
3.21545
3.30338
3.25103
3.24381
3.25812
3.32366
3.26253
3.29985
3.28914
3.26287
3.40153
3.23173
3.29384
3.23974
3.32806
3.38546
3.2909
3.27836
3.25771
3.27113
3.2743
3.29283
3.24496
3.31622
3.35633
3.40458
3.2546
3.42584
3.30196
3.34915
3.27069
3.34776
3.40641
3.26136
3.44238
3.3972
3.21523
3.2798
3.3346
3.2067
3.28652
3.37036
3.31564
3.35424
3.36618
3.26486
3.36588
3.30774
3.24915
3.28114
3.3152
3.27373
3.24702
3.34838
3.40025
3.26909
3.37187
3.3139
3.30012
3.23315
3.37275
3.36106
3.38453
3.38735
3.33868
3.30866
3.3554
3.27595
3.25998
3.41192
3.28874
3.32017
3.36903
3.39285
3.36661
3.32842
3.29897
3.36429
3.27096
3.3255
3.43177
3.29
3.27849
3.23151
3.36163
3.36988
3.39098
3.23932
3.29839
3.31067
3.43468
3.38838
3.39067
3.31731
3.38418
3.39721
3.24635
3.32128
3.27694
3.40983
3.40247
3.29011
3.35682
3.27131
3.23791
3.29204
3.24302
3.34282
3.26204
3.33323
3.41918
3.35313
3.3031
3.3899
3.28993
3.34565
3.38374
3.36404
3.30964
3.39122
3.38152
3.3532
3.2672
3.31281
3.34412
3.27967
3.3725
3.37017
3.44137
3.35216
3.39824
3.28091
3.36663
3.29023
3.39704
3.32713
3.30371
3.36746
3.22097
3.35594
3.42347
3.26348
3.34211
3.4059
3.42348
3.28683
3.38726
3.38365
3.26894
3.36576
3.26957
3.30953
3.27044
3.33702
3.38128
3.29692
3.31468
3.31643
3.29745
3.25286
3.31176
3.36259
3.2972
3.38576
3.30635
3.34538
3.39581
3.33713
3.33048
3.30617
3.23916
3.35764
3.34777
3.38363
3.27691
3.28519
3.3516
3.35929
3.33005
3.35036
3.37496
3.37707
3.37484
3.31165
3.34038
3.33941
3.35654
3.29692
3.26435
3.32212
3.35722
3.26528
3.37416
3.25112
3.30385
3.29088
3.33399
3.339
3.34129
3.30794
3.35444
3.28856
3.37877
3.34964
3.35904
3.38047
3.31535
3.37614
3.32823
3.36853
3.33483
3.34077
3.33811
3.32111
3.26491
3.38673
3.35716
3.30798
3.33675
3.29431
3.30537
3.32988
3.3781
3.28876
3.39714
3.36032
3.35054
3.34164
3.31924
3.28349
3.29341
3.32602
3.35939
3.33918
3.36295
3.25418
3.36644
3.30525
3.29283
3.28533
3.25822
3.31534
3.2922
3.358
3.33885
3.27806
3.35753
3.30874
3.30387
3.26154
3.27796
3.30029
3.28496
3.33035
3.31606
3.31611
3.24143
3.34627
3.40072
3.29647
3.32373
3.32044
3.29646
3.32725
3.31054
3.3595
3.31757
3.32901
3.30237
3.28786
3.35258
3.32441
3.34628
3.31993
3.30945
3.31159
3.34786
3.317
3.35778
3.31123
3.3584
3.32213
3.31129
3.28287
3.35884
3.26358
3.35122
3.34116
3.30789
3.29537
3.30084
3.34731
3.3169
3.33593
3.3025
3.34309
3.31511
3.29163
3.29263
3.347
3.27063
3.32003
3.27429
3.34578
3.29393
3.30839
3.34011
3.29901
3.28306
3.2984
3.3394
3.34401
3.3628
3.32731
3.31917
3.26523
3.29367
3.3008
3.30239
3.32247
3.33357
3.3373
3.35597
3.28395
3.30628
3.31338
3.31625
3.31831
3.27156
3.33071
3.33483
3.3577
3.3206
3.32421
3.3144
3.31666
3.30974
3.32892
3.3148
3.31406
3.34167
3.32924
3.33274
3.32246
3.2848
3.26764
3.25006
3.31115
3.33381
3.29773
3.27508
3.33266
3.32507
3.33309
3.31502
3.31165
3.31962
3.29499
3.29457
3.27876
3.28265
3.25705
3.31424
3.25328
3.29038
3
3.26204
3.36429
228
0
SCALARS cell_perimeter float
LOOKUP_TABLE default
6.92964
6.94385
6.96282
7.20063
7.13006
6.81916
7.08007
7.65755
6.93799
6.92656
7.39062
7.00343
6.79927
7.2457
7.04591
6.79587
7.17797
6.96988
6.92553
6.98965
6.94322
7.27455
7.24618
7.58532
7.59645
6.95576
7.98792
7.13255
6.90217
7.07291
6.94972
7.05244
8.19142
7.03387
7.08639
7.34539
7.90967
7.52402
7.83219
7.64342
8.27625
8.67465
8.19891
7.77129
7.38553
9.61252
8.04076
7.67018
8.06008
7.66509
8.13965
8.45806
7.78949
8.07723
7.67624
7.21797
7.43989
7.39285
8.66782
7.3265
7.73386
9.70196
8.6385
7.03641
7.15274
7.24337
6.90481
7.08491
7.1839
6.86659
7.8018
7.06737
7.17304
7.07729
7.24061
7.21896
7.79873
7.27098
6.93617
7.87671
8.24018
6.79094
7.02093
7.86953
7.55566
7.98505
6.82437
7.98647
7.08086
6.99944
7.80207
7.31478
7.65817
7.13339
7.93773
7.98161
7.37077
6.94712
8.23723
7.19126
7.1732
6.94646
7.12352
8.05735
7.20619
7.03385
6.85444
7.39485
7.31742
8.60645
8.66465
8.59813
10.1093
7.21527
7.24509
7.06118
6.91934
7.438
8.26322
7.0453
7.67644
7.27912
8.9782
7.20298
7.24872
8.42846
7.15017
7.06817
7.72716
7.02825
7.29148
7.79341
7.89779
7.36137
7.28885
7.08787
7.04746
7.92919
6.92208
7.22831
8.21026
6.91172
7.58296
7.58431
7.42883
7.22377
7.26823
9.13926
7.09794
7.32275
7.29497
8.0757
7.0746
7.17608
6.83265
6.8511
8.02698
7.00519
7.58789
7.7876
7.55487
6.88031
9.76274
7.33841
7.07152
7.2406
6.98119
7.1871
7.42937
7.17541
9.38611
7.88404
7.11148
7.44531
7.27837
8.02454
7.00635
7.09861
7.11262
7.98504
10.7773
6.91245
7.04094
7.0992
6.88963
7.36445
6.89816
6.92042
7.30306
6.80658
9.16638
7.01899
7.43938
7.2072
6.93272
7.15141
8.14714
7.22463
7.40902
6.98164
8.22585
7.03332
7.24721
7.07893
7.09107
6.89717
10.2345
7.05915
6.96947
6.96158
9.75003
6.94066
6.98463
7.09054
7.33991
7.01364
7.55936
7.88776
7.06159
7.06713
7.05218
7.07526
7.02827
9.27213
7.0495
7.64826
7.07921
7.14231
7.41893
7.16008
7.57871
7.17819
7.00318
7.22502
7.22551
6.91789
7.01557
7.07568
6.91662
7.1035
6.96892
6.95129
7.44424
7.13803
6.93061
6.94885
6.82754
7.11399
6.97737
7.0228
7.45708
7.90076
6.87359
7.04658
7.29594
7.22464
7.18091
7.47172
6.87987
7.1788
7.35629
7.51677
7.29277
7.20119
7.19634
6.9329
7.79102
7.59303
7.19938
7.16629
6.94861
7.15305
6.95732
7.53818
6.96658
7.32957
7.02742
7.24649
7.33288
6.90302
7.37514
6.84046
6.97296
8.37443
6.82954
7.311
8.02721
7.3014
7.10088
7.07421
6.98462
7.59499
7.27205
7.32164
7.11038
6.92579
7.09301
7.07654
7.63797
7.04519
7.14033
6.92851
7.79904
7.16277
7.13709
7.14269
7.53841
6.98463
7.00879
7.66461
6.96569
7.41985
7.02588
6.81454
7.14759
6.99136
7.02439
7.00125
6.84982
7.20951
6.82421
7.12729
7.36647
6.99294
6.79302
7.1709
6.78955
6.90159
6.84105
6.98318
7.11382
7.16915
7.30594
7.01258
6.97861
6.94119
7.48794
7.30497
6.92739
7.01167
7.05838
6.97121
7.18983
7.88093
7.05299
7.12451
7.11189
6.95562
7.32256
8.41681
7.20072
7.41082
7.4719
7.03761
7.0899
6.87971
7.25614
7.12661
6.93371
6.86876
6.88861
6.93446
6.74903
7.3672
7.48117
7.5188
7.04581
6.86054
7.50414
7.00262
6.77287
7.0596
6.82969
6.87854
6.82234
7.28708
7.78635
6.95047
7.06839
7.00168
8.07982
6.86825
7.08898
6.82695
6.84968
7.02173
7.15025
6.95209
7.13943
7.01838
7.23122
6.90802
6.94922
8.01681
6.99789
6.89219
7.13325
7.2203
7.02294
6.88373
6.98343
6.85983
7.2378
6.94044
6.90615
6.96608
6.89163
6.99263
7.12038
7.30669
7.64366
6.92617
7.07782
7.14611
7.03521
6.92169
7.48032
7.21223
7.01818
6.9264
6.94168
6.94621
6.81453
6.99795
7.03754
6.8362
6.91875
7.47377
6.83457
7.21014
6.87997
7.16979
7.71864
6.97013
7.12909
6.9329
6.88677
7.10709
6.89616
6.95993
6.84819
7.20583
7.38875
7.39703
7.40205
6.86045
6.94256
6.9772
6.96592
7.02679
6.94786
6.92418
7.06551
6.92351
7.00786
7.0809
7.06052
17
3.26764
3.37036
397
0
SCALARS cell_frequency_modifier float
LOOKUP_TABLE default
1.57893e+18
7.91473e+15
1.41487e+16
1.2294e+15
3.34679e+14
6.48963e+13
9.78443e+11
9.4407e+12
5.04094e+14
2.63323e+16
1.05065e+13
7.14923e+14
2.15019e+10
5.21219e+11
9.44439e+13
2.4843e+14
4.02037e+12
1.91033e+13
1.61571e+10
2.27671e+08
2.04237e+10
2.89721e+11
3.41518e+12
2.95422e+11
1.62718e+10
1.10818e+09
1.47227e+08
3.70594e+08
8.13515e+09
5.59848e+10
7.03064e+13
4.75354e+10
6.6023e+08
7.88733e+07
4.39483e+06
1.27209e+12
2.12486e+10
9.37168e+18
2.99137e+18
5.0598e+17
7.15027e+15
1.47975e+15
5.582e+14
2.18292e+13
4.80096e+12
6.50692e+10
6.26516e+09
6.80514e+11
3.42232e+12
3.37135e+14
8.88386e+14
2.56013e+15
6.5312e+17
3.96761e+18
10000
10000
1.95013e+17
1.49573e+14
4.36606e+07
9.43117e+13
1.52265e+17
4.70267e+08
1.89154e+10
1.90467e+15
1.17139e+12
6.88907e+13
1.70873e+08
2.2781e+09
3.96404e+12
1.59105e+09
2.86011e+07
7.13647e+07
3.41215e+09
1.8527e+16
6.25993e+15
2.1992e+14
3.7215e+08
2.74952e+11
2.96978e+13
1.40923e+19
4.57031e+07
1.9556e+18
3.90763e+09
2.7878e+08
3272.24
3.46352e+18
4.48029e+14
9.73207e+17
1.91483e+09
1.09652e+13
1.99452e+18
10000
5.8603e+16
3.28177e+12
2.39959e+16
1.23039e+13
8.35672e+11
9.6066e+12
9.11968e+15
9.49471e+11
5.0668e+13
3.1554e+12
2.81898e+07
1.14595e+10
2.75505e+07
5.09945e+11
3.2436e+09
2.37905e+06
5.51123e+09
1.76247e+11
5.844e+08
1.47036e+11
2.49823e+07
1.48519e+09
2.69518e+11
1.41971e+07
3.99919e+08
2.10865e+07
3.22601e+09
416381
412168
6.76301e+07
5.26222e+10
674600
3.78838e+06
1.95492e+07
135815
42806.8
2.00316e+09
1.31427e+09
2.40264e+07
3.91506e+08
12667.5
7.76259e+06
972889
4.0649e+06
678485
705338
1.17455e+06
1959.74
1.143e+09
1.45861e+09
2.00091e+08
4.51721e+07
101.437
1.28682e+07
489950
1.13295e+08
269.796
1.37717e+07
1.32539e+08
8.70809e+06
119036
275438
949609
90489.3
2.04873e+06
4.71111e+06
4441.69
293450
55204.1
119490
3.45787e+06
121648
27913.8
0.352284
723.596
4.6366e+06
207226
1039.15
2.4414e+08
886828
17559.5
1919.47
8807.92
1.19419e+06
139570
26945.9
47135.2
1.27538e+08
504076
7742.4
7381.18
1175.78
23587.2
377593
939.378
109.743
106.744
0.913759
1.9291e+06
3547.85
5496.88
12723.7
6751.4
280212
1.54342e+06
29205
19798
17933.6
255140
91.9807
4184.32
28476.9
60762.2
1997.62
7.35035e+06
802.033
2569.84
156.073
48026.7
452.726
6.1858
2202.16
164.872
97.2767
2922.97
137774
1677.26
3989.02
121.286
18571.5
330.11
2.22483e+06
1.52608
431.103
1120.84
1800.3
53195.2
326.18
127080
344.835
12.0676
4686.8
69.2405
34.7243
140.728
112.34
326.201
408.459
108.68
103.791
6209.36
2.39109
101.041
980.821
172.252
799.645
2.41709
3073.66
156.12
74768.2
3.33453
7.94869
4.25511
41.6087
71.4483
181.577
16.8276
350.218
13.5585
174.502
254.414
54.7003
1.27783
2.74924
24140.1
6584.81
0.659367
23.4418
1.21661
0.47206
56.5772
6.00843
117.18
1.53487
122.162
265.648
713.671
5.06175
39462.5
4.56312
36.3009
477227
10.1878
141.356
741.69
2528.48
9.80902
87.5076
5.37984
332.96
19.0693
3128.07
17.0793
69.5349
5.80732
4.03429
24.7104
8.36418
229.297
12.9599
1.04059
68.2356
46.4551
175.299
611.835
15.1928
2.39736
58.1054
0.786222
24.4946
54.8605
13.6456
5.98015
390.611
24.2764
1.9722
23.7976
31.3303
0.932878
100.878
172.99
2.91602
0.49808
14.5116
0.417909
106.416
2.63388
2.58307
16.3748
180.851
144.843
5.44091
25.615
6.19914
4.84433
2288.85
3.80459
2.1472
5.34812
119.611
1360.88
26.193
341.756
8.47723
1.49709
3.92904
275.778
6.27119
2.15154
4.83628
10.596
4.60058
33.9298
1.26427
2.06877
0.553902
3.75192
3.13236
3.15371
231.508
2.03361
1.17649
0.511401
0.917016
7.40453
1.57661
1.20707
8.41681
0.500091
47.0656
0.76952
2.2312
1.88246
389.295
3.7438
229.321
1.26327
3.01166
11.0339
15.2874
3.25411
0.491103
2.00431
0.684307
3.03035
3.76324
1.12982
118.902
18.6585
0.789384
300.848
7.78476
314.091
5.13535
66.5061
2.35011
0.570739
3.17698
113.091
6.08058
0.808265
1.3832
0.429231
0.8379
6.89136
146.52
12.6705
2.98429
4.93263
1.3782
2.9636
0.590398
0.46152
409.278
1.89553
3.06704
1.84967
2.61057
167.303
1.15678
0.675872
0.498655
1.86218
0.95193
1.18857
3.02906
2.38131
0.791913
1.21769
1.83726
0.53267
0.735874
0.727387
0.855178
134.733
100.252
127.206
1.7452
0.731159
3.70074
113.751
0.673717
1.13334
0.685693
1.14738
1.71033
0.932447
6.23871
7.02147
102.688
124.481
100.221
2.27752
107.497
173.217
1
1
1
1
1
SCALARS cell_area_modifier float
LOOKUP_TABLE default
100
3.05686
11.5696
0.433381
0.461849
0.519613
0.768713
0.353032
0.478785
100
0.613835
100
0.328895
0.94324
1.94883
0.703618
0.308888
100
0.499727
0.309936
0.317471
0.568055
0.578847
0.358572
0.404604
0.347661
0.290251
0.302749
0.319692
0.720252
100
4.59296
0.464195
0.60974
0.287512
100
0.5109
100
100
100
100
100
100
100
100
100
100
100
100
100
100
100
100
100
100
100
100
100
100
100
100
1.90814
100
100
0.601712
100
0.306814
0.454953
100
0.421392
0.28661
0.452699
0.423344
100
100
100
0.541149
0.459527
100
100
100
100
0.622192
0.672553
0.365746
100
5.40828
100
0.364289
100
100
100
100
2.23472
100
100
100
0.816801
100
2.95793
100
100
0.303755
100
8.38532
100
0.743694
0.331279
101.556
100
100
100
100
15.4915
100
1.03982
0.427302
0.300757
100
0.293043
2.54596
0.473821
100
0.486429
0.29879
100
0.288419
0.312052
100
100
0.635163
100
100
0.359984
1.07656
0.439634
0.376287
100
0.377842
1.76108
100
100
1.116
100
100
0.47629
0.305788
100
0.357171
1.23681
2.8652
100
0.354401
0.390765
0.332485
0.325383
0.582537
1.60633
0.435445
100
100
0.29685
100
0.888241
0.367216
0.316372
0.373214
0.731785
3.27599
0.380992
100
0.781865
0.292106
100
100
100
0.389102
0.362842
0.320814
100
3.52896
1.43036
0.291176
0.324228
0.321944
0.973376
0.333698
0.31099
100
0.855005
100
0.297817
0.30175
100
0.419458
100
100
31.5172
100
0.525589
100
0.653324
0.295889
0.443905
2.29073
0.323082
100
0.505252
0.334921
0.382587
1.50082
0.318578
0.338644
0.441759
100
1.27121
0.513772
100
0.35578
0.361408
0.289332
0.448259
0.307848
100
0.371696
100
0.314197
0.762302
2.18138
0.37019
100
0.431336
0.294934
100
0.528629
0.29977
0.293985
100
0.326545
0.336153
100
0.379411
100
1.52588
100
0.597776
0.339903
4.17352
1.1733
1.01669
3.82427
100
1.28914
0.387452
3.99127
0.330083
1.79568
0.50806
0.315281
0.593892
0.682599
1.86912
100
0.411897
0.483854
0.337394
100
100
0.450468
0.397564
0.692949
0.468958
0.348988
0.345036
0.350326
1.30758
0.550934
0.557657
0.425314
4.37321
100
0.847081
0.415643
100
0.351674
100
2.13054
100
0.639608
0.571607
0.537964
1.69573
0.43753
100
0.34245
0.471377
0.399301
0.341172
1.08939
0.346343
0.737692
0.368697
0.626456
0.547633
0.586273
0.863078
100
0.327716
0.417542
1.66485
0.605699
7.08527
1.99129
0.698243
0.343738
100
0.313121
0.392443
0.466565
0.534816
0.924166
100
10.2697
0.775233
0.395842
0.564546
0.384195
100
0.374744
2.03563
13.2464
100
100
1.10253
23.4359
0.406403
0.575205
100
0.413762
1.57858
2.082
100
100
2.77812
100
0.687735
1.06403
1.05178
100
0.497009
0.304768
4.83598
0.809566
0.879692
5.10615
0.755997
1.4531
0.394135
0.963119
0.714621
2.47696
100
0.446071
0.795474
0.494321
0.905847
1.55178
1.3461
0.481306
0.983854
0.408218
1.38695
0.402821
0.839302
1.36622
100
0.401053
100
0.457229
0.544372
1.72779
5.74843
2.61891
0.489032
0.994559
0.617985
2.34961
0.522584
1.12979
48.1053
18.6531
0.491662
100
0.896958
100
0.502474
7.68067
1.63506
0.554275
3.16263
100
3.39777
0.56108
0.516676
0.385817
0.749795
0.933606
100
9.23232
2.69617
2.41161
0.824166
0.648687
0.590058
0.42931
100
1.83166
1.25377
1.02812
0.953076
100
0.677539
0.63078
0.410049
0.871306
0.802458
1.18856
1.0055
1.47658
0.725973
1.15843
1.22029
0.531704
0.709077
0.662799
0.831665
100
100
100
1.40832
0.644116
3.67068
100
0.667641
0.788611
0.658027
1.14393
1.32656
0.914915
6.13423
6.57554
100
100
100
1.20422
100
100
1
1
1
1
1
SCALARS cell_Gaussian_modifier float
LOOKUP_TABLE default
1.57893e+16
2.58917e+15
1.22292e+15
2.83676e+15
7.24649e+14
1.24893e+14
1.27283e+12
2.67418e+13
1.05286e+15
2.63323e+14
1.71162e+13
7.14923e+12
6.53761e+10
5.52583e+11
4.84619e+13
3.53076e+14
1.30156e+13
1.91033e+11
3.23319e+10
7.34575e+08
6.43326e+10
5.10023e+11
5.89996e+12
8.23883e+11
4.02166e+10
3.18755e+09
5.07239e+08
1.2241e+09
2.54468e+10
7.77295e+10
7.03064e+11
1.03496e+10
1.42231e+09
1.29356e+08
1.52857e+07
1.27209e+10
4.15905e+10
9.37168e+16
2.99137e+16
5.0598e+15
7.15027e+13
1.47975e+13
5.582e+12
2.18292e+11
4.80096e+10
6.50692e+08
6.26516e+07
6.80514e+09
3.42232e+10
3.37135e+12
8.88386e+12
2.56013e+13
6.5312e+15
3.96761e+16
100
100
1.95013e+15
1.49573e+12
436606
9.43117e+11
1.52265e+15
2.46453e+08
1.89154e+08
1.90467e+13
1.94676e+12
6.88907e+11
5.56926e+08
5.00734e+09
3.96404e+10
3.77569e+09
9.97911e+07
1.57643e+08
8.05999e+09
1.8527e+14
6.25993e+13
2.1992e+12
6.87704e+08
5.98336e+11
2.96978e+11
1.40923e+17
457031
1.9556e+16
6.28042e+09
4.1451e+08
8946.76
3.46352e+16
8.28413e+13
9.73207e+15
5.25635e+09
1.09652e+11
1.99452e+16
100
5.8603e+14
1.46854e+12
2.39959e+14
1.23039e+11
8.35672e+09
1.17613e+13
9.11968e+13
3.20992e+11
5.0668e+11
3.1554e+10
9.28043e+07
1.14595e+08
3.28556e+06
5.09945e+09
4.36147e+09
7.1814e+06
5.42681e+07
1.76247e+09
5.844e+06
1.47036e+09
249823
9.58708e+07
2.69518e+09
1.36534e+07
9.35916e+08
7.01113e+07
3.22601e+07
1.42089e+06
161891
1.42734e+08
5.26222e+08
1.38684e+06
1.26791e+07
195492
470895
137179
2.00316e+07
1.31427e+07
3.78272e+07
3.91506e+06
126.675
2.15637e+07
903701
9.24609e+06
1.80311e+06
7053.38
3.10856e+06
1112.8
1.143e+07