# vtk DataFile Version 3.0
2D-vertex
ASCII
DATASET UNSTRUCTURED_GRID

POINTS 912 float
0.543641 -3.93023 0
2.9929 -3.72449 0
3.38244 -2.77574 0
2.35694 -1.70661 0
0.0902339 -1.55881 0
-0.629347 -3.04759 0
3.91054 -2.74209 0
4.48458 -1.88795 0
3.55249 -0.371649 0
2.50625 -0.68522 0
1.33281 0.575439 0
-0.355042 1.05239 0
-1.11975 -0.22219 0
-1.27499 -0.260463 0
-1.79384 -1.92984 0
-1.28458 -2.81511 0
5.05562 -2.04517 0
5.8673 -1.1646 0
4.03197 0.373422 0
3.76242 0.306804 0
2.88509 1.26687 0
1.82009 1.1801 0
1.16848 4.80851 0
0.314563 4.78416 0
-0.507146 2.90711 0
-1.71627 1.99502 0
-1.63248 0.0889263 0
-2.92358 -0.201627 0
-3.43659 -1.23502 0
-3.13513 -1.94615 0
6.93524 -1.15243 0
7.55627 -0.428137 0
7.37838 0.88438 0
5.16099 2.0558 0
5.62861 2.63574 0
3.28223 3.97106 0
2.51753 5.25901 0
1.63203 5.41638 0
0.707473 8.60112 0
-0.880702 8.64544 0
-0.559934 5.59567 0
-2.05953 4.65347 0
-3.11036 3.10519 0
-4.0664 3.13828 0
-4.80373 1.72597 0
-6.21247 1.41669 0
-6.4987 0.351077 0
-4.98354 -1.00202 0
7.79913 1.51155 0
7.4543 2.55245 0
6.7008 2.97283 0
5.95875 5.03569 0
3.60933 6.22739 0
3.53709 7.10006 0
2.0882 8.71986 0
2.62347 9.42598 0
-1.85151 10.0193 0
-1.75373 9.10669 0
-2.99219 7.76744 0
-2.66001 5.61646 0
-4.29245 5.9223 0
-5.67386 4.60214 0
-7.59025 3.10658 0
-7.44617 2.57272 0
8.36867 2.96501 0
8.36863 2.96751 0
6.87266 5.01581 0
7.30277 6.21824 0
6.02772 7.49141 0
6.23548 8.174 0
5.43954 9.19247 0
5.16735 9.70458 0
-2.57875 12.3169 0
-2.83453 11.982 0
-6.01061 9.06112 0
-5.33772 8.27708 0
-6.05791 6.89927 0
-5.9745 6.73546 0
-8.57574 3.61243 0
-8.42458 3.25986 0
9.89949 3.28167 0
10.211 4.23756 0
9.40159 5.21662 0
10.5667 5.64854 0
10.2507 7.17114 0
10.4338 7.88155 0
9.60463 12.5167 0
10.6063 14.6012 0
-9.60505 14.0757 0
-9.6047 14.0732 0
-9.98524 8.19937 0
-9.69103 7.68139 0
-10.0316 7.04518 0
-9.28694 5.95424 0
-10.0979 4.69443 0
-9.63391 3.71551 0
3.92544 -5.5735 0
5.12463 -5.0123 0
5.95678 -4.59721 0
8.28892 -2.97385 0
9.56257 -1.52102 0
10.863 0.833829 0
10.9539 1.00533 0
11.6389 2.08746 0
12.3962 4.02743 0
12.5943 4.81661 0
12.7189 8.34017 0
13.2004 15.0399 0
-13.1941 14.515 0
-12.5858 8.14776 0
-12.4961 6.87101 0
-12.1116 4.3305 0
-11.2271 2.39524 0
-10.3597 1.30157 0
-9.74957 0.584201 0
-8.83191 -0.732129 0
-6.88099 -2.8497 0
-4.79165 -4.2278 0
-2.67952 -5.19797 0
0.332512 -5.97885 0
12.5602 9.82174 0
8.46849 9.98043 0
-12.8688 10.6082 0
-9.97081 11.4555 0
-0.252777 2.56924 0
1.03991 2.67786 0
-1.80568 4.62355 0
-1.03966 2.89547 0
4.53723 4.18186 0
4.9329 5.10715 0
0.39589 10.2048 0
0.178732 9.09417 0
-1.07983 6.94566 0
-2.26213 6.64389 0
5.95776 5.03797 0
5.10411 7.00834 0
4.12366 7.50279 0
4.12252 8.86624 0
2.09592 10.4473 0
2.09392 10.4458 0
-2.34458 10.242 0
-3.90452 8.46724 0
-3.45681 7.77958 0
-4.42021 6.50875 0
1.45816 -0.0674748 0
0.0189855 -1.07715 0
6.55226 1.12164 0
5.47659 -0.428092 0
5.15897 2.05726 0
3.12982 2.85087 0
-8.85749 9.84158 0
-5.828 9.75639 0
3.12732 2.85091 0
1.69128 3.51584 0
-9.30077 5.8935 0
-7.8882 5.29195 0
-0.659988 -3.06362 0
-1.04579 -5.75332 0
14.9649 31.4064 0
17.3758 31.5471 0
1.35151 -3.57837 0
1.4452 -2.12173 0
2.5315 7.47461 0
1.36499 6.44232 0
8.2941 9.50184 0
5.43974 9.19498 0
8.87283 20.2536 0
-0.048404 12.1467 0
-2.57463 -2.19755 0
-3.25471 -4.96247 0
-4.22688 0.809704 0
-5.11146 -0.379965 0
-5.44144 -3.85418 0
-4.39177 -1.39202 0
0.435166 6.9081 0
-0.473998 6.47073 0
9.37293 5.07524 0
7.79223 4.2667 0
5.68794 -1.69933 0
7.43195 -3.67479 0
1.88735 -6.03113 0
1.90007 -4.00415 0
-6.06095 -0.266485 0
-7.6417 -2.16189 0
-5.26708 3.50587 0
-6.58606 2.25212 0
7.641 1.0185 0
10.1247 -0.630584 0
-12.3664 5.71876 0
-9.31156 5.91344 0
12.8505 6.86298 0
10.7563 6.65854 0
-2.67826 2.16907 0
-3.57991 0.803802 0
-9.32441 0.0184403 0
-6.56977 1.68182 0
-3.48636 5.41903 0
-4.2334 3.43141 0
-6.72247 5.48415 0
-6.29796 4.68843 0
8.27202 6.39425 0
8.47346 6.87748 0
-0.87218 11.9867 0
-0.641584 10.8751 0
12.5647 9.83077 0
9.89727 11.1105 0
9.76691 13.3998 0
1.78477 11.0127 0
7.85496 8.14386 0
9.06429 8.86116 0
-7.20244 6.99332 0
-7.54554 7.74452 0
-2.32552 14.2831 0
0.679979 13.4565 0
-9.90711 11.9532 0
-4.05566 11.8187 0
9.06293 8.86327 0
12.5825 9.36708 0
-10.6987 13.1029 0
-13.2479 13.527 0
-12.6409 9.12599 0
-9.11937 9.40112 0
12.6643 17.7861 0
10.0351 16.1 0
8.14176 10.4203 0
6.01029 10.5964 0
-9.11942 9.3986 0
-7.23517 8.71514 0
2.14067 13.9838 0
3.89449 12.345 0
-4.34952 10.2319 0
-3.5792 9.57725 0
4.61719 12.0911 0
3.71809 10.5519 0
12.9035 11.5152 0
10.1016 11.6493 0
-2.93941 13.8591 0
-4.50446 12.7797 0
-13.4051 26.4892 0
-0.0575201 15.0593 0
-6.42152 10.3032 0
-4.37335 12.0344 0
-12.7213 9.83965 0
-9.31457 10.438 0
5.73205 16.1541 0
7.9111 14.2367 0
-1.21272 13.8256 0
-0.701245 12.1897 0
-10.3553 17.3515 0
-13.5109 16.3957 0
15.9289 38.0455 0
2.06433 15.0705 0
-3.04043 16.5061 0
-10.2916 17.7449 0
-10.6531 12.4308 0
-13.1 11.6389 0
-6.52293 14.0876 0
-5.96324 12.9878 0
-6.29821 11.0458 0
-7.113 11.9775 0
13.1375 13.2112 0
10.5546 13.9591 0
-11.1714 18.8835 0
-14.1014 18.8933 0
5.79644 11.6964 0
4.62111 12.0765 0
9.96099 15.2748 0
7.96692 14.8152 0
3.71826 13.4881 0
6.36402 15.5315 0
-2.14293 15.7329 0
-0.630417 16.0521 0
14.0502 20.2642 0
11.3634 21.3329 0
0.0908634 15.0297 0
1.03223 15.7418 0
12.1004 23.0904 0
3.69103 15.6274 0
13.002 12.3474 0
9.89778 12.8851 0
-8.37059 13.5762 0
-8.39671 12.7085 0
-9.21266 10.7762 0
-7.11647 11.6028 0
-9.93281 16.9531 0
-6.14062 15.8768 0
13.7939 43.3349 0
14.7571 44.7824 0
1.53814 13.3496 0
2.33822 11.8132 0
-3.93556 15.4953 0
-3.83117 14.3016 0
-13.3282 15.6143 0
-10.1316 16.2927 0
-0.351319 17.5796 0
-0.442503 17.5174 0
7.46316 12.5952 0
7.03876 13.5037 0
8.3807 10.9319 0
7.32797 12.3167 0
-11.1224 18.2899 0
-13.7548 17.2357 0
-2.7112 16.5034 0
-1.74876 17.9319 0
1.32836 16.8575 0
2.97049 16.8453 0
6.00234 13.6693 0
5.7265 14.266 0
-7.41608 17.2145 0
-7.19531 17.6524 0
-9.04704 14.8266 0
-6.34816 15.0547 0
3.67207 15.5818 0
4.44017 14.3455 0
-10.5834 20.823 0
-3.89116 17.7744 0
14.5653 21.3257 0
12.266 22.2692 0
-16.3234 25.7419 0
-13.9538 25.7385 0
8.15076 16.6143 0
7.28591 15.6304 0
12.6723 18.0745 0
8.99192 19.4177 0
3.7438 18.1342 0
5.55052 18.79 0
1.01203 19.4807 0
3.1282 18.5868 0
-1.00409 25.3773 0
-3.62927 24.0429 0
-3.24384 22.3698 0
-4.5176 19.6602 0
-6.14674 14.7786 0
-4.02135 14.1903 0
-9.77014 19.7205 0
-8.21846 18.6356 0
7.60235 23.3809 0
6.90168 20.5736 0
-13.2071 14.8651 0
-9.40093 15.346 0
-9.36291 15.4445 0
-7.16623 16.4522 0
-0.334328 19.7064 0
-0.0990333 19.406 0
14.6173 30.4802 0
2.05804 22.8397 0
16.9425 27.2028 0
14.8712 27.4671 0
-15.0557 20.9625 0
-12.337 21.5811 0
-5.33743 16.2326 0
-5.16455 17.4543 0
7.64545 17.4346 0
6.48616 17.4153 0
1.10708 17.2159 0
1.70636 18.2855 0
10.1977 15.7469 0
13.0945 16.0184 0
12.6357 17.9067 0
8.15565 16.9371 0
-11.9286 22.5408 0
-4.49639 19.9766 0
-2.23502 18.9209 0
-3.53928 18.7878 0
3.56298 23.2241 0
4.1693 22.5585 0
-5.77436 17.9897 0
-5.64947 19.1019 0
3.7517 17.6193 0
5.75482 16.6886 0
-1.97235 22.2219 0
-0.375129 23.57 0
1.98141 28.3679 0
12.2957 30.4058 0
-11.2184 43.7411 0
-12.5506 44.5694 0
-5.33778 46.8946 0
-2.62523 24.8913 0
-14.304 19.3027 0
-12.0898 21.1116 0
-1.83758 19.6106 0
-3.55761 20.6097 0
-7.43647 20.7272 0
-5.92586 21.0203 0
13.1635 26.3297 0
11.7885 29.2658 0
4.74003 20.9174 0
6.38175 21.2533 0
11.3328 21.438 0
8.37809 22.2616 0
13.0876 18.7631 0
11.0695 20.9507 0
-13.528 24.8242 0
-3.80709 21.8129 0
16.2701 25.2598 0
14.4476 26.5025 0
2.13354 20.5398 0
3.31459 19.7618 0
-15.688 22.568 0
-13.5623 23.7011 0
-1.88987 26.9898 0
3.95062 24.3916 0
0.189434 21.0666 0
1.75339 21.4772 0
-8.21013 18.7383 0
-6.90208 19.668 0
8.02714 18.5658 0
6.51416 19.3982 0
-1.51318 21.4391 0
-2.21173 20.3258 0
12.6331 17.9168 0
8.13127 18.2478 0
-2.69376 24.5719 0
-1.44885 23.3433 0
-5.8389 21.5963 0
-4.85212 22.1854 0
-4.61073 24.2886 0
-5.19696 23.5505 0
-14.107 18.9017 0
-10.5193 20.4607 0
5.35501 24.4614 0
5.94994 23.351 0
-0.307103 29.5742 0
4.83209 47.6067 0
-8.22925 21.6896 0
-7.90811 22.7696 0
2.16713 48.7844 0
2.04088 50.429 0
-10.1983 28.0107 0
-7.95675 30.2224 0
9.48646 20.7177 0
8.25509 21.9261 0
15.0433 22.3483 0
12.5659 23.4678 0
5.67196 22.791 0
6.53563 21.6427 0
2.17475 21.1341 0
3.92553 21.7355 0
3.33656 24.9961 0
5.26334 28.4734 0
4.55566 20.1996 0
5.64901 19.142 0
1.62883 23.2526 0
1.89601 24.4836 0
12.796 18.3387 0
9.46319 20.5741 0
-6.20224 36.5186 0
-4.67128 31.8146 0
-13.8778 28.1563 0
-16.453 28.0184 0
-0.212472 21.5503 0
0.257048 22.8966 0
-7.30538 22.9221 0
-6.98471 23.6751 0
-9.7601 20.0973 0
-7.43636 20.7247 0
8.87483 25.7359 0
9.84048 23.9605 0
-16.1949 24.4182 0
-13.7797 24.4957 0
-7.41539 24.4536 0
-7.39825 26.0339 0
4.46516 32.5101 0
8.59693 31.2712 0
-13.9885 30.1878 0
-9.84375 29.0041 0
8.72178 26.215 0
5.76025 27.3988 0
2.40551 27.988 0
1.35156 26.2374 0
-4.83869 26.0601 0
-4.73655 26.1194 0
14.8921 42.2176 0
16.3362 43.0404 0
-0.114649 24.5635 0
1.23303 25.0341 0
-9.49033 23.6551 0
-9.62528 24.1119 0
5.61198 37.4851 0
5.76388 43.2886 0
-3.31476 25.7627 0
-2.75521 26.8699 0
14.6213 27.8905 0
12.4204 28.1003 0
-8.85917 45.7174 0
-9.61938 47.4263 0
-10.0315 44.3857 0
-7.40566 35.4257 0
10.0953 23.4442 0
9.66174 22.4875 0
-10.6126 26.1702 0
-9.10592 24.6882 0
12.9057 25.7757 0
10.5169 25.3687 0
-2.4703 37.4177 0
-0.620091 31.1349 0
-9.86719 21.6371 0
-10.3475 22.6567 0
17.1767 28.7585 0
15.1544 28.8442 0
15.4708 23.2247 0
13.2029 24.572 0
15.7619 35.5938 0
12.7008 34.335 0
-1.85361 29.5738 0
-1.48082 27.9209 0
-14.091 35.9003 0
-16.0383 35.8767 0
3.42412 25.9126 0
2.23257 26.6763 0
7.90846 30.2631 0
7.23003 27.204 0
5.92897 25.0838 0
4.92932 26.0292 0
-6.07598 29.2602 0
-5.48189 29.8673 0
8.07872 24.13 0
7.8881 24.5855 0
5.97876 30.1056 0
6.12484 32.6601 0
-13.7871 28.3427 0
-10.8176 27.8802 0
16.4332 37.7026 0
18.2415 38.2467 0
-8.85179 27.0913 0
-5.95787 28.5444 0
-12.1933 38.2796 0
-9.87811 34.1877 0
3.20653 31.882 0
2.62751 32.25 0
-16.39 26.9305 0
-13.6213 26.9419 0
-16.5057 29.4662 0
-14.4813 29.4486 0
-0.114736 40.5338 0
[...]
CELL_DATA 1368
SCALARS current_Length float
LOOKUP_TABLE default
0.881167
1.02561
1.48144
1.46725
1.65356
1.46798
0.529167
1.02912
1.77987
1.09222
1.03225
1.2166
1.75395
1.48638
0.486902
0.159892
1.74814
1.02131
0.0345797
0.592291
0.564011
0.833726
0.277658
0.710189
1.30055
1.06854
0.776563
1.06136
0.85426
2.04903
0.422918
0.532641
1.90793
0.499872
1.32339
1.15373
0.772383
0.82541
1.06801
0.954091
1.32452
0.859521
2.02611
0.00249762
1.27258
1.60246
1.49786
0.899378
0.764449
1.06012
0.722959
0.879268
1.19302
1.58016
1.87121
0.977605
0.956609
1.59319
1.20069
1.4423
1.10338
0.635078
0.70872
0.517785
1.09654
0.862838
1.12393
2.19226
1.73401
1.45938
0.875659
1.07308
1.38583
0.886071
1.14907
0.917864
0.987387
1.82411
1.10178
1.13487
0.849607
1.91079
0.337365
0.630035
0.552961
0.570531
1.00313
0.0025
1.42131
0.00248829
1.27704
1.80186
0.711514
0.713515
1.29259
1.60015
0.00251556
1.67877
0.421373
0.541029
1.232
1.0332
0.464782
1.55468
0.183826
0.600212
1.45782
0.383609
0.848295
1.56276
1.00536
1.18491
0.985101
1.24256
1.02765
1.61976
0.733647
0.999427
1.22714
0.470783
1.38923
0.00250627
1.35019
0.885809
0.595707
2.14643
0.72161
1.32083
2.32912
0.0476592
1.0833
1.06317
2.07086
1.32401
2.57446
0.92993
2.70647
1.10712
2.26936
2.28464
1.64003
3.13796
0.194095
3.24404
1.28069
2.10988
2.1953
0.813654
2.19163
2.06235
2.33063
0.4552
2.63095
3.61581
1.05635
2.60109
1.2799
2.47067
1.15952
2.04634
2.06918
1.39592
2.75309
0.941734
3.04301
0.707707
2.57239
2.64845
1.75536
2.81958
0.621532
2.76114
1.39663
2.05947
1.55571
1.93207
2.08255
0.802566
2.12778
1.02556
0.0100806
0.547913
4.09483
0.782531
1.018
3.01932
1.52029
1.68878
1.29725
0.255603
1.12633
1.89025
1.89251
1.02834
1.00633
1.23517
1.15055
1.1317
1.71141
1.33991
1.2202
0.915165
1.04231
2.14734
1.09807
1.35682
1.36344
0.645416
1.71504
0.00250167
1.80765
1.44576
1.40222
0.82056
1.57074
1.59472
0.655019
1.42396
1.75803
1.67579
1.65208
1.88646
0.745123
1.13051
2.17882
0.512435
0.718849
2.47932
0.00249813
1.39439
1.58251
1.43983
1.8148
1.53532
0.672208
1.72554
2.71723
0.932823
1.81927
2.41498
0.694416
1.00179
1.45965
1.3218
1.03997
1.55768
0.509371
0.577834
2.87081
0.671777
0.654251
1.99696
0.6143
1.70351
2.84734
1.08272
0.956246
1.48249
0.749543
0.967991
2.67658
1.71478
0.769802
1.0089
0.144255
1.18608
1.77549
0.720721
1.73983
2.63515
2.08884
1.12805
2.02702
0.756973
1.86032
2.46807
1.16931
0.917922
1.81978
0.294879
1.053
2.98128
1.41146
0.0226678
3.06107
1.48305
0.720039
2.10417
1.03103
0.647003
1.63613
0.897726
0.444919
3.2179
0.950293
1.03636
2.12337
1.18147
2.04261
0.901877
1.6318
1.8013
0.523538
1.73822
1.482
1.13524
1.71813
0.576165
2.95857
0.966077
2.15558
2.03579
1.40934
1.68384
1.40606
1.14839
1.2725
0.825844
1.58386
1.49865
0.151304
0.501683
1.61376
0.756727
0.00251366
1.03593
3.55547
1.4623
0.98947
2.58416
0.979787
0.0025223
3.53229
0.123995
1.95328
3.12331
0.564643
1.12063
2.13874
1.47912
1.01904
2.00437
0.874787
1.64465
1.65363
1.55306
1.1567
1.01091
0.766017
1.62554
1.77194
0.838032
0.999766
2.80509
0.746082
1.47354
0.995492
0.580738
1.69006
1.47724
0.806996
0.384039
0.752797
0.718166
0.751444
3.45886
2.10787
2.09987
0.581212
1.20317
0.26535
1.71404
0.398494
0.87467
3.29713
0.959622
1.0894
1.50307
0.329237
0.99361
1.41898
0.673736
1.89392
2.57178
1.91714
1.47725
1.2341
2.16389
1.53055
0.374727
1.82976
0.64422
2.68896
0.929888
1.08976
2.93
1.65236
0.0151167
1.23524
0.388725
0.887117
2.04635
1.15661
1.06223
1.2888
1.46126
1.14632
1.54583
1.17981
0.109474
2.8916
1.67986
1.23118
1.18038
0.599268
0.0494574
2.03613
0.874405
0.53108
3.15049
1.33044
1.68873
0.868097
0.353166
0.989824
2.25329
0.689664
0.847902
2.53027
1.56664
2.35122
1.73864
0.864785
0.97314
1.7323
0.878462
0.220344
1.19823
0.758857
1.14465
3.26776
1.3961
1.28006
0.110402
2.14291
1.13942
1.00277
1.52707
0.309576
1.73951
0.59564
1.69346
2.83567
0.957404
1.37045
1.72244
1.15432
1.41509
1.64217
1.04957
1.41706
0.657335
0.802135
1.5272
0.49046
0.935506
0.341755
2.7085
1.68705
1.12086
1.45541
0.367931
1.46041
1.07278
1.12891
0.837757
2.48532
1.32993
1.00862
2.36955
0.322859
0.92718
1.30992
0.291764
0.84428
3.9178
0.514987
1.03102
1.92207
1.11357
0.764063
1.3822
1.29833
1.01173
1.6924
1.71699
1.0843
1.13232
0.786734
1.49105
2.2053
1.63223
2.2564
1.8435
1.65268
0.902295
1.74266
0.35032
0.628537
3.83644
0.105605
1.17601
2.4168
1.10204
1.84374
0.381522
0.989286
1.20552
2.32277
1.57319
0.491658
2.08809
1.82211
0.530581
2.78824
1.58395
1.31301
1.23385
0.947297
1.66291
1.15944
0.421206
1.4534
1.22608
0.52813
0.984221
2.90947
0.010385
0.7126
4.58378
1.04298
0.31711
1.5853
0.796091
1.31083
1.31103
1.55325
0.858314
0.900323
0.811498
1.26206
1.11927
1.09966
0.535003
2.20876
1.30546
0.923674
1.09739
1.54651
0.502976
0.23111
0.565138
2.23305
1.56873
1.40007
0.326718
1.15852
0.446786
1.53381
2.85919
1.50629
0.792034
0.807098
0.00250954
1.76993
1.53878
1.29564
1.24775
1.73392
0.741099
0.855788
1.67575
1.24966
1.36185
1.97327
1.78323
0.482153
2.97632
0.413811
1.22876
1.4079
2.05611
1.05345
2.20587
1.54257
1.18978
1.41424
0.980999
1.36835
2.40881
1.43861
1.23021
1.20912
1.4576
0.543402
1.61696
0.103002
1.37459
1.60482
1.28704
1.23761
1.72685
0.907486
1.37551
1.31436
0.162448
0.334649
4.514
1.0747
1.2376
1.74905
0.582567
1.10945
1.14925
0.632827
0.648711
0.942593
0.0100784
0.841674
3.9118
1.40612
0.625267
1.25971
1.55033
0.978742
1.33979
1.24681
0.621725
1.12675
1.5211
2.33363
1.64943
1.63047
0.0790306
1.61299
1.60007
0.357329
1.72526
0.975021
0.760554
2.71857
1.52054
0.418634
1.43684
0.595719
1.15444
1.85121
0.861654
0.495303
0.920676
1.31601
0.365503
1.52116
0.595631
1.52899
1.25959
0.514948
0.145473
4.01308
0.195329
1.36713
1.37875
1.21946
1.33646
2.57892
0.628916
1.41724
1.42576
1.9769
1.79209
0.818462
0.376858
1.18409
2.40696
0.846633
0.887761
1.26256
1.91835
0.823843
2.41641
0.889654
1.859
0.695449
1.08278
1.2207
0.540266
0.888451
1.05476
2.14465
0.244326
1.18393
1.30089
0.569418
1.22701
0.984281
0.889
1.46585
0.118119
0.770261
1.8336
1.66205
1.02707
0.86175
1.42748
1.81318
1.70674
0.476287
0.766444
0.805064
0.944451
1.11119
0.873601
1.24057
1.09262
0.764442
2.21092
0.907151
1.68796
1.87035
1.35067
0.982322
1.36484
0.575764
1.30338
1.05029
0.705542
0.775802
1.15622
0.611047
1.6826
1.87958
1.44669
1.58374
1.45922
1.63878
1.31587
1.12711
1.43866
0.93536
2.02416
1.82288
0.640836
2.63785
0.609817
1.44135
0.826571
1.47326
1.01703
0.708369
1.22432
1.63707
1.94742
0.595317
1.32303
1.4153
1.05051
1.48265
1.04377
2.0215
1.60203
0.102944
0.725508
1.14276
0.849431
1.7699
1.51554
0.493774
1.93612
1.72955
0.23464
0.207255
0.600536
1.9928
1.36531
2.18136
1.88838
1.39919
1.41268
1.55852
0.586854
1.10922
1.54514
1.40663
1.41864
0.686056
1.19045
0.501656
2.76871
1.44881
1.30573
2.0245
2.07066
0.662175
0.492555
1.59962
1.73625
0.341595
1.76165
1.54091
0.742662
0.604285
1.66542
1.36277
0.674324
1.2447
0.926675
0.00250106
1.78013
1.51254
0.593742
0.918138
1.61161
1.2847
1.10972
2.06923
1.84104
0.750595
1.40256
0.777229
0.456396
1.98863
0.219322
1.40124
1.77123
0.387016
1.48633
0.674205
2.34549
2.18531
0.893218
1.28154
1.11895
0.858875
0.63711
1.22906
1.49978
0.744927
0.545434
3.22291
1.20644
1.07529
0.685188
1.18455
2.00691
2.1406
0.363557
0.744219
2.78366
0.663586
1.30913
1.95871
1.70692
1.55248
1.04395
1.75544
1.71587
0.897987
0.662858
1.01598
1.71003
0.465308
1.24664
2.31326
0.0113309
1.47143
0.509595
1.50859
0.676682
2.20229
1.00159
1.08878
1.14845
1.0159
1.21305
1.05734
0.711766
0.929136
0.564436
1.34292
0.425015
0.942064
1.35721
0.402213
2.43768
1.27438
0.731198
1.09627
1.02172
1.07685
1.96901
1.21381
1.35078
0.878778
0.993111
1.04782
2.49376
1.02824
1.23501
2.11089
0.829352
1.17
2.07688
0.730422
1.29571
2.03193
0.988527
1.90691
2.19566
0.965725
1.54536
1.34659
0.994702
1.53045
0.0830416
0.59675
0.657936
2.43303
0.885591
1.49251
0.803961
0.72775
1.01855
1.58
1.80563
1.73584
1.19021
0.985874
1.24366
1.16626
0.314489
1.01887
1.88809
1.36525
1.82427
1.26832
0.411841
0.847862
1.48328
0.416305
0.559583
0.350937
1.4188
0.66644
0.873683
1.40948
0.396672
1.94124
1.34395
0.98148
1.11952
1.89055
0.5238
1.79466
1.46272
0.877818
2.13389
1.29238
1.18589
1.28523
0.76676
0.948108
1.09355
2.06129
1.4089
1.07717
0.704878
1.09901
1.26349
1.65453
1.75578
0.942033
1.25907
0.62222
0.824382
1.82818
1.11964
1.81531
0.732429
1.49776
2.03334
1.16106
1.6397
1.85796
2.20033
1.38578
1.8741
1.79124
1.42054
0.544821
1.62286
0.857164
1.12762
0.68891
0.798806
1.37894
2.02807
1.62209
0.181049
1.96977
2.12328
1.62162
1.26241
1.29709
0.756778
1.79987
1.06225
1.16635
1.89259
1.76229
0.915617
1.16874
0.790208
1.46606
1.3772
0.902637
2.04811
1.30206
0.14446
2.87439
0.827294
1.58615
1.89483
1.40296
0.194473
1.19013
0.772846
0.517086
1.42224
1.38401
1.59649
0.412817
2.17137
1.23372
1.96828
0.98423
0.325169
2.42117
0.740301
0.786624
0.744234
1.73071
0.856003
0.823432
0.279777
1.07862
2.25019
1.91564
1.32915
0.415802
0.739716
1.43501
1.55857
1.36873
1.12673
0.834132
1.0766
1.48545
1.83629
0.990158
0.365017
1.42198
0.732253
0.745877
1.23011
1.57801
0.999764
1.09195
0.509909
1.3339
1.61771
1.40344
0.897374
1.27838
0.878059
1.05329
1.23329
1.35386
1.15266
1.9649
0.845958
0.756254
2.1231
0.670956
0.983316
1.07472
1.88601
1.60622
1.33466
0.799909
1.00185
1.26156
1.1898
1.23332
0.594865
1.62783
1.54011
0.963294
0.816075
0.689559
1.30546
1.21749
1.91969
1.20682
0.541485
1.0934
1.03381
1.09884
1.34566
1.34821
1.35367
1.53304
1.09096
1.07777
1.42475
1.85491
0.733015
1.9168
1.59795
1.47472
1.04426
1.43917
0.956333
1.05813
1.83269
0.64242
1.19643
1.78898
0.821224
0.88299
2.73911
1.05396
1.24678
1.52059
1.56331
1.49661
1.7507
0.466395
0.943418
0.772828
1.25907
1.23805
0.879483
1.29037
0.84528
1.55392
1.52479
0.85522
1.84355
1.25137
0.638347
1.65941
1.18386
0.787023
1.13608
1.13341
1.37985
1.38583
2.02434
1.50686
1.13686
1.11759
0.50375
1.76738
1.14987
1.10573
1.63324
0.985483
0.723827
2.94539
1.08345
1.61358
1.82683
0.826374
0.703159
1.47871
2.05006
1.322
1.15003
1.50248
0.924864
2.13852
1.12925
0.853148
1.37153
0.980197
1.32118
1.45129
1.74044
1.28002
1.2525
1.09589
0.757958
1.08977
1.18369
0.519221
2.02836
0.946426
0.440844
1.57649
0.920785
1.12511
0.60842
1.17673
0.998741
1.25611
1.45086
1.13075
1.04139
0.195094
1.41187
1.42932
1.09256
1.70708
1.69177
1.40744
0.747614
2.33724
1.32413
0.556881
2.65062
0.567041
0.760911
1.63006
0.827546
0.377956
1.76743
0.743268
1.55503
2.26698
0.453617
0.830271
1.18257
1.40136
1.53345
1.23211
0.423628
0.763185
1.98658
1.08264
0.467721
2.23012
0.233574
0.876287
1.55496
1.0645
1.00095
1.32662
1.62712
1.06402
1.57817
1.34546
0.800264
1.57359
1.15719
0.966215
1.2871
0.543412
1.10278
1.52813
1.19785
1.00749
1.18827
0.940521
1.45479
1.09306
1.27341
0.91046
1.07325
0.817623
0.235737
2.44655
1.15665
1.60838
1.16026
1.90648
1.28473
1.27709
1.06165
1.58315
1.04143
0.71406
1.56944
1.55954
2.39425
0.814558
0.127044
1.17449
1.79811
0.70389
0.584044
0.831706
1.64353
0.67581
1.132
1.30705
1.46518
0.920019
0.812256
0.944332
1.71003
1.63296
1.04422
1.40384
1.59241
1.27182
0.716382
1.35308
0.938787
0.913658
1.72911
0.603174
1.72612
2.06372
1.25032
2.15526
1.83019
0.815374
1.24626
2.43374
1.24878
0.751405
2.36368
0.686817
0.982257
1.58198
1.1864
0.820191
1.5868
1.27258
0.71325
1.62324
1.07101
0.939568
1.44698
1.3195
1.10371
1.81034
1.3802
0.802196
1.96354
3.29119
3.27876
3.28131
166
232
3.25187
3.3162
3.33819
3.35684
0
342
360
308
307
0
0
0
0

SCALARS edge_force float
LOOKUP_TABLE default
0.5
0.5
0.5
0.5
0.5
0.5
0.5
0.5
0.5
0.5
0.5
0.5
0.5
0.5
0.5
0.5
0.5
0.5
0.5
0.5
0.5
0.5
0.5
0.5
0.5
0.5
0.5
0.5
0.5
0.5
0.5
0.5
0.5
0.5
0.5
0.5
0.5
0.5
0.5
0.5
0.5
0.5
0.5
0.5
0.5
0.5
0.5
0.5
0.5
0.5
0.5
0.5
0.5
0.5
0.5
0.5
0.5
0.5
0.5
0.5
0.5
0.5
0.5
0.5
0.5
0.5
0.5
0.5
0.5
0.5
0.5
0.5
0.5
0.5
0.5
0.5
0.5
0.5
0.5
0.5
0.5
0.5
0.5
0.5
0.5
0.5
0.5
0.5
0.5
0.5
0.5
0.5
0.5
0.5
0.5
0.5
0.5
0.5
0.5
0.5
0.5
0.5
0.5
0.5
0.5
0.5
0.5
0.5
0.5
0.5
0.5
0.5
0.5
0.5
0.5
0.5
0.5
0.5
0.5
0.5
0.5
0.5
0.5
0.5
0.5
0.5
0.5
0.5
0.5
0.5
0.5
0.5
0.5
2
0.5
2
0.5
2
0.5
0.5
2
0.5
2
0.5
2
0.5
0.5
2
0.5
2
0.5
2
0.5
0.5
2
0.5
2
0.5
2
0.5
0.5
2
0.5
2
0.5
2
0.5
0.5
2
0.5
2
0.5
2
0.5
2
2
2
2
2
2
2
0.5
0.5
2
0.5
0.5
0.5
0.5
0.5
0.5
0.5
0.5
0.5
0.5
0.5
0.5
0.5
0.5
0.5
0.5
0.5
0.5
0.5
0.5
0.5
0.5
0.5
0.5
0.5
0.5
0.5
0.5
0.5
0.5
0.5
0.5
0.5
0.5
0.5
0.5
0.5
0.5
0.5
0.5
0.5
0.5
0.5
0.5
0.5
0.5
0.5
0.5
0.5
0.5
0.5
2
0.5
0.5
2
0.5
0.5
0.5
0.5
0.5
0.5
0.5
0.5
0.5
0.5
0.5
0.5
0.5
0.5
2
0.5
0.5
0.5
0.5
2
0.5
0.5
0.5
0.5
0.5
0.5
0.5
0.5
0.5
2
0.5
2
0.5
0.5
0.5
2
0.5
0.5
0.5
0.5
0.5
2
0.5
2
0.5
0.5
2
0.5
0.5
0.5
0.5
0.5
2
0.5
0.5
0.5
0.5
0.5
0.5
0.5
0.5
0.5
0.5
0.5
0.5
0.5
0.5
2
0.5
0.5
0.5
0.5
0.5
0.5
0.5
0.5
0.5
0.5
0.5
0.5
0.5
0.5
0.5
0.5
0.5
0.5
2
0.5
0.5
2
0.5
2
0.5
0.5
2
0.5
0.5
0.5
0.5
0.5
0.5
0.5
0.5
0.5
0.5
0.5
0.5
0.5
0.5
0.5
0.5
0.5
2
0.5
0.5
0.5
0.5
0.5
0.5
0.5
0.5
0.5
0.5
0.5
2
0.5
0.5
0.5
0.5
0.5
0.5
0.5
0.5
0.5
2
0.5
0.5
0.5
0.5
0.5
0.5
0.5
0.5
2
0.5
0.5
0.5
0.5
0.5
0.5
0.5
2
0.5
0.5
0.5
2
0.5
0.5
0.5
0.5
0.5
0.5
0.5
0.5
0.5
0.5
0.5
0.5
0.5
2
0.5
0.5
0.5
0.5
0.5
0.5
0.5
0.5
2
0.5
0.5
0.5
0.5
0.5
0.5
0.5
0.5
0.5
0.5
0.5
0.5
2
0.5
0.5
0.5
0.5
0.5
0.5
0.5
2
0.5
0.5
0.5
0.5
0.5
0.5
0.5
0.5
0.5
0.5
0.5
0.5
2
0.5
0.5
0.5
0.5
0.5
0.5
0.5
0.5
0.5
0.5
0.5
0.5
0.5
0.5
0.5
0.5
0.5
0.5
0.5
0.5
0.5
0.5
2
0.5
0.5
2
0.5
0.5
0.5
0.5
0.5
2
0.5
0.5
0.5
0.5
0.5
0.5
0.5
0.5
0.5
0.5
0.5
0.5
0.5
0.5
0.5
0.5
0.5
0.5
0.5
0.5
0.5
0.5
0.5
2
0.5
0.5
0.5
0.5
0.5
0.5
0.5
0.5
0.5
0.5
0.5
2
0.5
0.5
2
0.5
0.5
0.5
0.5
0.5
0.5
0.5
0.5
0.5
0.5
0.5
0.5
2
0.5
2
0.5
0.5
0.5
0.5
0.5
0.5
0.5
0.5
0.5
0.5
0.5
0.5
0.5
0.5
0.5
0.5
0.5
0.5
0.5
0.5
0.5
0.5
0.5
0.5
2
0.5
0.5
0.5
0.5
2
0.5
0.5
0.5
0.5
0.5
0.5
0.5
0.5
0.5
0.5
0.5
0.5
0.5
0.5
0.5
0.5
0.5
2
0.5
0.5
0.5
0.5
0.5
2
0.5
0.5
0.5
0.5
0.5
2
0.5
0.5
0.5
0.5
0.5
0.5
0.5
0.5
0.5
0.5
0.5
0.5
0.5
0.5
0.5
0.5
0.5
2
0.5
0.5
0.5
0.5
0.5
0.5
0.5
0.5
0.5
0.5
0.5
2
0.5
0.5
0.5
0.5
0.5
0.5
0.5
0.5
0.5
0.5
0.5
0.5
2
0.5
0.5
0.5
0.5
0.5
0.5
0.5
2
0.5
0.5
0.5
0.5
0.5
0.5
0.5
0.5
0.5
0.5
0.5
0.5
0.5
0.5
0.5
0.5
0.5
2
0.5
0.5
0.5
0.5
0.5
0.5
2
0.5
0.5
0.5
0.5
0.5
0.5
0.5
0.5
0.5
0.5
0.5
0.5
0.5
2
0.5
0.5
0.5
0.5
0.5
0.5
0.5
0.5
0.5
0.5
0.5
0.5
0.5
0.5
0.5
0.5
0.5
0.5
0.5
0.5
0.5
2
0.5
0.5
0.5
0.5
0.5
0.5
0.5
0.5
0.5
0.5
0.5
0.5
0.5
0.5
0.5
0.5
0.5
2
0.5
0.5
0.5
0.5
0.5
0.5
0.5
0.5
0.5
0.5
0.5
0.5
0.5
0.5
0.5
0.5
0.5
0.5
0.5
2
0.5
0.5
2
0.5
0.5
0.5
0.5
0.5
0.5
0.5
0.5
0.5
2
0.5
0.5
0.5
0.5
0.5
0.5
0.5
0.5
0.5
0.5
0.5
0.5
0.5
0.5
0.5
0.5
0.5
0.5
0.5
0.5
0.5
0.5
0.5
2
0.5
0.5
0.5
0.5
0.5
0.5
0.5
0.5
0.5
0.5
2
0.5
0.5
2
0.5
0.5
0.5
0.5
0.5
0.5
0.5
0.5
0.5
0.5
0.5
0.5
0.5
0.5
0.5
0.5
0.5
0.5
0.5
0.5
0.5
0.5
0.5
2
0.5
0.5
0.5
0.5
0.5
0.5
0.5
0.5
0.5
0.5
0.5
0.5
0.5
0.5
0.5
0.5
0.5
0.5
0.5
0.5
0.5
0.5
0.5
2
0.5
0.5
0.5
0.5
0.5
0.5
2
0.5
2
0.5
0.5
0.5
0.5
0.5
0.5
0.5
0.5
0.5
0.5
0.5
0.5
0.5
0.5
0.5
0.5
0.5
0.5
0.5
0.5
2
0.5
0.5
0.5
0.5
0.5
0.5
0.5
0.5
0.5
0.5
0.5
0.5
0.5
0.5
2
0.5
0.5
0.5
0.5
0.5
0.5
0.5
0.5
0.5
0.5
0.5
2
0.5
0.5
0.5
0.5
0.5
0.5
0.5
0.5
0.5
0.5
0.5
0.5
2
0.5
0.5
0.5
0.5
0.5
0.5
0.5
0.5
0.5
0.5
0.5
0.5
0.5
0.5
0.5
0.5
0.5
0.5
0.5
0.5
0.5
0.5
0.5
0.5
0.5
0.5
0.5
0.5
0.5
0.5
0.5
0.5
0.5
0.5
0.5
0.5
0.5
0.5
0.5
0.5
0.5
0.5
0.5
2
0.5
0.5
2
0.5
0.5
0.5
0.5
0.5
0.5
0.5
0.5
0.5
0.5
0.5
0.5
0.5
0.5
0.5
0.5
0.5
0.5
0.5
0.5
0.5
0.5
0.5
0.5
2
0.5
0.5
2
0.5
2
0.5
0.5
0.5
0.5
0.5
0.5
0.5
0.5
0.5
0.5
0.5
0.5
0.5
0.5
0.5
0.5
0.5
0.5
0.5
0.5
0.5
0.5
0.5
0.5
0.5
0.5
0.5
0.5
0.5
0.5
0.5
0.5
2
0.5
0.5
0.5
0.5
0.5
0.5
0.5
0.5
0.5
0.5
0.5
0.5
0.5
0.5
2
0.5
0.5
0.5
2
0.5
0.5
0.5
0.5
0.5
0.5
0.5
0.5
0.5
0.5
0.5
0.5
0.5
0.5
0.5
0.5
0.5
0.5
0.5
0.5
2
0.5
0.5
0.5
0.5
0.5
0.5
0.5
0.5
0.5
0.5
0.5
0.5
0.5
0.5
0.5
0.5
0.5
0.5
0.5
2
0.5
0.5
0.5
2
0.5
0.5
0.5
0.5
0.5
0.5
0.5
0.5
0.5
0.5
0.5
0.5
0.5
0.5
0.5
0.5
0.5
0.5
0.5
0.5
0.5
0.5
0.5
0.5
0.5
0.5
0.5
0.5
0.5
0.5
0.5
0.5
2
0.5
0.5
0.5
0.5
0.5
0.5
0.5
0.5
0.5
0.5
0.5
0.5
0.5
2
0.5
0.5
0.5
0.5
0.5
2
0.5
0.5
0.5
0.5
0.5
0.5
0.5
0.5
0.5
0.5
0.5
2
0.5
0.5
0.5
0.5
0.5
0.5
0.5
0.5
0.5
0.5
0.5
0.5
0.5
0.5
0.5
0.5
0.5
0.5
0.5
0.5
2
0.5
0.5
0.5
0.5
0.5
0.5
0.5
0.5
0.5
0.5
0.5
2
0.5
0.5
0.5
0.5
0.5
0.5
0.5
0.5
0.5
0.5
0.5
0.5
0.5
0.5
2
0.5
0.5
0.5
0.5
0.5
0.5
0.5
0.5
0.5
0.5
0.5
0.5
0.5
0.5
0.5
0.5
0.5
0.5
2
0.5
2
0.5
0.5
2
0.5
0.5
0.5
0.5
0.5
0.5
0.5
0.5
0.5
2
0.5
0.5
0.5
0.5
0.5
0.5
0.5
0.5
0.5
0.5
0.5
0.5
0.5
0.5
0.5
0.5
0.5
0.5
0.5
0.5
0.5
0.5
0.5
0.5
0.5
0.5
0.5
0.5
0.5
0.5
0.5
0.5
0.5
0.5
0.5
0.5
0.5
0.5
0.5
0.5
0.5
0.5
0.5
0.5
0.5
0.5
0.5
0.5
0.5
0.5
0.5
0.5
0.5
0.5
0.5
0.5
0.5
0.5
0.5
0.5
0.5
0.5
0.5
0.5
0.5
0.5
0.5
0.5
0.5
0.5
0.5
0.5
0.5
0.5
0.5
0.5
0.5
0.5
0.5
0.5
0.5
0.5
0.5
2
0.5
0.5
2
0.5
0.5
2
0.5
2
0.5
0.5
0.5
0.5
0.5
0.5
0.5
0.5
0.5
0.5
0.5
0.5
0.5
0.5
0.5
0.5
0.5
0.5
0.5
0.5
0
0
0
0
0
0
0
0
0
0
0
0
0
0
0
0
0
0
