# vtk DataFile Version 3.0
2D-vertex
ASCII
DATASET UNSTRUCTURED_GRID

POINTS 318 float
0.268583 -2.02522 0
2.87457 -1.79611 0
3.24944 -0.895749 0
2.26674 0.137783 0
-0.146386 0.313747 0
-0.891824 -1.08292 0
3.87031 -0.855063 0
4.44083 0.0140932 0
3.56558 1.41263 0
2.4114 1.07296 0
1.22679 2.21469 0
-0.554889 2.78399 0
-1.35677 1.56354 0
-1.62626 1.50668 0
-2.1388 0.0337574 0
-1.66598 -0.825911 0
5.0351 -0.131305 0
5.93782 0.811682 0
4.13989 2.15025 0
3.7691 2.05746 0
2.97237 2.92936 0
1.76125 2.84358 0
1.21347 6.10827 0
0.0728312 6.05513 0
-0.63951 4.31364 0
-2.03277 3.61625 0
-2.02558 1.91642 0
-3.42059 1.65714 0
-3.89371 0.799478 0
-3.61395 0.0960555 0
7.04574 0.854074 0
7.72586 1.71429 0
7.46112 2.97992 0
5.31595 3.85445 0
5.85694 4.50714 0
3.43713 5.52848 0
2.7397 6.596 0
1.67423 6.73261 0
0.584408 9.48145 0
-1.12981 9.3808 0
-0.768678 6.83383 0
-2.5886 6.05436 0
-3.54385 4.80404 0
-4.68832 4.916 0
-5.36912 3.81279 0
-6.84034 3.61225 0
-7.13692 2.71276 0
-5.54987 1.16376 0
7.99016 3.81093 0
7.66888 4.66764 0
7.03464 4.94366 0
6.2558 6.8863 0
3.82974 7.72326 0
3.70571 8.42642 0
2.17411 9.70102 0
2.73558 10.5555 0
-2.14192 10.6 0
-2.13288 10.004 0
-3.3513 8.95957 0
-3.11347 7.06093 0
-4.92819 7.65056 0
-6.28338 6.6492 0
-8.28497 5.62573 0
-8.19356 4.96384 0
8.6069 5.20738 0
8.62929 5.31724 0
7.24199 7.04702 0
7.48043 8.46028 0
6.27526 9.32966 0
6.40544 10.2135 0
5.68913 10.9096 0
5.67863 11.2999 0
-2.58972 12.8581 0
-2.88591 12.6245 0
-6.545 11.4143 0
-5.95935 10.1455 0
-6.75359 9.22846 0
-6.62181 8.77378 0
-9.19156 6.44912 0
-9.04953 5.88766 0
10.0615 5.75248 0
10.3229 6.92372 0
9.57954 7.90736 0
10.5533 8.41043 0
10.1451 10.0543 0
10.288 11.0377 0
8.05325 16.2292 0
5.93994 19.2074 0
-6.65397 19.034 0
-7.17002 18.1816 0
-10.1647 11.9151 0
-9.90833 11.0463 0
-10.3506 10.5112 0
-9.69624 9.12085 0
-10.4826 7.91637 0
-10.1255 6.69692 0
3.75327 -3.58053 0
5.01562 -2.99747 0
5.9308 -2.5351 0
8.35762 -0.791686 0
9.6363 0.760138 0
10.8941 3.21683 0
11.0677 3.58109 0
11.732 4.81838 0
12.3495 6.91056 0
12.4895 7.87817 0
12.1237 11.6817 0
6.62527 20.8779 0
-7.63206 20.6287 0
-12.0713 12.3764 0
-12.3329 10.7639 0
-12.3724 7.85983 0
-11.764 5.7261 0
-11.0049 4.42296 0
-10.3768 3.4711 0
-9.36031 1.79098 0
-7.39445 -0.522176 0
-5.23028 -2.0422 0
-3.03914 -3.10221 0
0.0312721 -3.95322 0
11.3139 14.0316 0
8.70829 13.0032 0
-11.0098 16.1624 0
-9.02219 15.5979 0
-0.448212 4.07183 0
1.06502 4.20667 0
-2.03024 5.94963 0
-1.43841 4.31154 0
4.85174 5.8185 0
5.17329 6.80222 0
0.282333 10.857 0
0.12291 9.88488 0
-1.35929 7.9896 0
-2.76289 7.74077 0
6.25528 6.88874 0
5.34944 8.68225 0
4.39299 9.01978 0
4.21434 10.2083 0
2.3144 11.3225 0
2.30422 11.3023 0
-2.83229 11.0387 0
-4.51305 10.0084 0
-4.13974 9.113 0
-4.9921 8.28043 0
1.31621 1.71858 0
-0.193779 0.658053 0
6.6476 3.12046 0
5.61259 1.38347 0
5.31368 3.85552 0
3.27901 4.46042 0
-8.74937 13.2766 0
-6.22087 11.9145 0
3.23307 4.43578 0
1.67783 5.03353 0
-9.59936 8.8634 0
-8.24106 7.95342 0
-0.967872 -1.11833 0
-1.39949 -3.68988 0
1.59042 20.3707 0
1.90426 22.288 0
1.14646 -1.66124 0
1.25343 -0.306288 0
2.6051 8.72045 0
1.43232 7.51337 0
8.64968 12.1064 0
5.7789 11.1694 0
3.82258 19.4705 0
0.35775 12.5373 0
-2.96638 -0.214394 0
-3.69098 -2.8207 0
-4.82352 2.78326 0
-5.65738 1.78667 0
-5.96009 -1.59598 0
-4.87786 0.683081 0
0.398298 7.97581 0
-0.698316 7.44399 0
9.54736 7.56477 0
7.9876 6.58689 0
5.75903 0.276771 0
7.4229 -1.58206 0
1.66213 -4.0308 0
1.68981 -2.08926 0
-6.65055 1.9567 0
-8.20339 0.2674 0
-6.01932 5.48847 0
-7.29262 4.51442 0
7.80208 3.18956 0
10.1993 1.72953 0
-12.4193 9.32192 0
-9.69815 9.11923 0
12.5028 10.0437 0
10.642 9.64302 0
-3.17611 3.88284 0
-4.03522 2.72275 0
-9.87374 2.67095 0
-7.31386 4.01522 0
-4.04546 6.94759 0
-4.86667 5.28717 0
-7.32767 7.93892 0
-6.94961 6.84762 0
8.42701 8.80951 0
8.60982 9.58273 0
-0.827809 12.2283 0
-0.715312 11.4843 0
11.1327 14.7345 0
9.06774 14.6597 0
7.13767 17.5653 0
2.07356 11.7106 0
7.88687 10.4979 0
9.05506 11.7921 0
-7.86385 9.60505 0
-8.0704 10.6841 0
-2.20576 14.5863 0
0.935474 14.0252 0
-8.48299 16.215 0
-4.21247 12.9247 0
9.05388 11.8654 0
11.6506 13.0672 0
-7.90028 18.1938 0
-9.02116 19.5543 0
-11.7077 13.7793 0
-9.12196 12.9468 0
5.05737 21.5228 0
4.51849 19.6856 0
8.38305 13.2192 0
6.34643 12.6319 0
-9.09861 12.7917 0
-7.56228 11.4423 0
2.50901 15.4725 0
3.68708 13.4648 0
-4.8857 11.8716 0
-4.13234 10.6848 0
4.58303 13.3701 0
4.11606 11.7511 0
10.4057 16.7978 0
8.8203 15.8868 0
-2.66506 14.3452 0
-4.22503 14.6256 0
-1.03689 19.9749 0
0.0250525 15.1909 0
-6.71356 12.9064 0
-4.58949 13.5815 0
-11.4028 14.8499 0
-9.01132 14.2228 0
3.44897 17.7358 0
6.01944 16.9201 0
-0.977855 14.0095 0
-0.525317 12.5494 0
-3.95376 20.5638 0
-4.45859 22.1246 0
0.589297 19.9838 0
2.22745 16.1044 0
-2.23467 17.3794 0
-2.46305 20.1462 0
-8.75955 17.0247 0
-10.3938 17.7079 0
-5.19407 16.7889 0
-5.0213 15.2878 0
-6.30083 13.5423 0
-6.52211 14.9084 0
8.45672 19.5284 0
7.1148 18.3772 0
-1.32365 20.2831 0
-0.909664 22.5831 0
5.83977 13.4205 0
4.58488 13.3684 0
5.28875 18.9883 0
5.07571 17.5513 0
3.26769 15.3112 0
4.17053 17.1495 0
-1.78904 16.1467 0
-0.59153 16.2341 0
3.48958 21.9749 0
3.07716 20.1431 0
0.267906 15.1749 0
1.0867 16.2557 0
2.22182 19.8465 0
2.90653 17.5756 0
9.53192 18.2118 0
7.97865 17.1331 0
-6.56733 16.9799 0
-7.19908 16.0583 0
-8.68109 14.5899 0
-6.78971 14.4107 0
-4.5895 19.7564 0
-4.47503 17.199 0
0.121266 20.3624 0
0.408542 22.4763 0
1.65002 14.0775 0
2.64086 12.8867 0
-3.40162 16.2275 0
-3.49377 14.905 0
-6.15179 21.4654 0
-5.36243 19.817 0
0.392534 18.139 0
-0.153583 17.8795 0
6.75364 15.2909 0
6.00238 15.6716 0
8.36863 14.072 0
6.85184 14.6532 0
-2.31263 20.2992 0
-2.80594 22.5005 0
-2.22807 17.3781 0
-1.18831 18.5079 0
0.828939 17.8622 0
1.98447 18.4145 0
5.18453 15.2505 0
4.11208 15.9453 0
-3.8745 18.4494 0
-2.64763 18.531 0
-5.88488 19.014 0
-4.91168 17.1875 0
2.70928 17.1482 0
3.81485 15.7221 0
-1.14159 20.0874 0
-2.54909 18.2562 0
2.69692 22.1314 0
2.24349 19.8541 0

CELLS 477 1431
2 160 0
2 1 2
2 2 3
2 161 4
2 4 5
2 5 0
2 2 6
2 6 7
2 7 8
2 8 9
2 3 9
2 9 144
2 10 11
2 11 12
2 145 4
2 12 13
2 13 14
2 15 14
2 5 156
2 7 16
2 17 178
2 147 17
2 19 18
2 19 8
2 20 19
2 21 20
2 10 21
2 153 125
2 23 22
2 24 23
2 24 124
2 127 24
2 26 25
2 26 13
2 27 26
2 28 27
2 29 28
2 14 168
2 30 17
2 30 31
2 32 31
2 32 146
2 18 33
2 33 148
2 128 35
2 20 152
2 35 36
2 37 36
2 22 37
2 37 163
2 38 131
2 175 40
2 40 23
2 126 40
2 42 41
2 25 192
2 43 42
2 43 44
2 193 27
2 45 44
2 46 45
2 47 171
2 173 47
2 48 186
2 48 49
2 49 50
2 34 50
2 50 51
2 52 129
2 36 52
2 52 53
2 53 162
2 54 38
2 55 54
2 139 55
2 57 56
2 39 57
2 58 57
2 59 133
2 41 59
2 59 196
2 61 60
2 197 43
2 199 61
2 62 63
2 195 185
2 49 64
2 64 65
2 177 65
2 51 134
2 67 66
2 68 67
2 53 136
2 69 68
2 70 69
2 55 137
2 165 70
2 233 71
2 73 72
2 140 56
2 215 73
2 74 75
2 58 142
2 76 75
2 77 76
2 60 143
2 77 198
2 78 79
2 79 62
2 65 80
2 80 81
2 81 176
2 67 200
2 82 83
2 83 191
2 69 208
2 84 85
2 164 216
2 71 225
2 86 279
2 158 250
2 88 89
2 290 252
2 254 214
2 90 91
2 91 211
2 91 92
2 92 93
2 93 210
2 189 93
2 94 95
2 95 78
2 96 1
2 96 97
2 97 6
2 97 98
2 16 98
2 179 99
2 99 30
2 31 100
2 187 101
2 101 48
2 101 102
2 102 64
2 102 103
2 103 80
2 81 104
2 104 105
2 83 105
2 105 190
2 85 106
2 217 120
2 107 87
2 108 88
2 255 122
2 109 90
2 109 110
2 92 110
2 110 188
2 111 94
2 95 112
2 112 113
2 113 79
2 113 114
2 63 114
2 114 194
2 115 46
2 116 47
2 116 172
2 117 29
2 169 118
2 118 15
2 157 119
2 0 119
2 119 180
2 99 100
2 103 104
2 249 292
2 111 112
2 183 116
2 120 204
2 121 224
2 120 121
2 122 242
2 123 282
2 122 123
2 124 11
2 125 21
2 124 125
2 41 126
2 127 25
2 126 127
2 34 128
2 129 51
2 128 129
2 203 130
2 131 39
2 130 131
2 39 132
2 133 58
2 132 133
2 134 66
2 135 68
2 134 135
2 136 135
2 137 70
2 136 137
2 207 138
2 130 139
2 139 138
2 140 73
2 75 141
2 231 140
2 142 141
2 143 77
2 142 143
2 144 10
2 145 12
2 144 145
2 146 33
2 147 18
2 146 147
2 148 34
2 149 35
2 148 149
2 221 150
2 151 74
2 150 240
2 152 149
2 153 22
2 152 153
2 94 154
2 155 78
2 154 155
2 156 15
2 157 118
2 156 157
2 87 266
2 107 222
2 159 158
2 181 160
2 161 3
2 160 161
2 162 54
2 163 174
2 162 163
2 164 121
2 71 165
2 165 164
2 166 273
2 247 167
2 244 166
2 168 29
2 169 117
2 168 169
2 44 170
2 171 182
2 170 171
2 172 117
2 173 28
2 172 173
2 174 38
2 175 132
2 174 175
2 176 82
2 177 66
2 176 177
2 178 16
2 179 98
2 178 179
2 180 96
2 181 1
2 180 181
2 182 46
2 183 115
2 182 183
2 61 184
2 185 63
2 184 185
2 186 32
2 187 100
2 186 187
2 188 111
2 189 154
2 188 189
2 190 106
2 191 84
2 190 191
2 192 42
2 193 170
2 192 193
2 194 115
2 195 45
2 194 195
2 196 60
2 197 184
2 196 197
2 198 155
2 199 62
2 198 199
2 200 82
2 201 84
2 200 201
2 72 202
2 203 56
2 202 203
2 204 234
2 205 235
2 205 204
2 261 206
2 167 207
2 206 245
2 208 201
2 209 85
2 208 209
2 210 76
2 227 74
2 210 211
2 236 72
2 213 167
2 239 274
2 214 123
2 230 215
2 241 237
2 216 209
2 217 106
2 216 217
2 89 218
2 219 108
2 218 219
2 220 109
2 221 226
2 220 221
2 222 272
2 166 223
2 223 222
2 224 298
2 264 225
2 225 224
2 226 90
2 227 211
2 226 227
2 228 288
2 289 229
2 228 268
2 151 230
2 231 141
2 230 231
2 229 232
2 233 138
2 265 233
2 234 278
2 235 86
2 235 234
2 236 212
2 257 237
2 291 236
2 248 284
2 246 239
2 271 295
2 240 151
2 241 215
2 240 258
2 242 220
2 243 150
2 242 243
2 244 277
2 232 306
2 245 267
2 212 246
2 247 202
2 246 247
2 253 248
2 301 249
2 249 248
2 286 238
2 251 228
2 294 304
2 252 302
2 300 253
2 253 309
2 218 254
2 255 219
2 254 255
2 280 256
2 259 281
2 256 257
2 258 241
2 259 257
2 283 259
2 260 107
2 261 87
2 260 261
2 238 314
2 287 263
2 262 263
2 299 264
2 232 265
2 265 264
2 266 223
2 269 244
2 266 267
2 268 229
2 267 269
2 313 307
2 212 270
2 271 239
2 270 271
2 272 316
2 317 273
2 273 272
2 274 213
2 275 251
2 274 275
2 158 276
2 277 312
2 305 276
2 278 260
2 279 206
2 278 279
2 89 280
2 281 214
2 280 281
2 282 243
2 283 258
2 282 283
2 284 293
2 311 285
2 308 284
2 250 286
2 287 159
2 286 287
2 288 213
2 289 207
2 288 289
2 285 290
2 291 237
2 290 291
2 292 108
2 293 310
2 292 293
2 250 294
2 303 238
2 294 295
2 86 296
2 297 245
2 296 297
2 298 205
2 299 296
2 298 299
2 262 300
2 301 263
2 300 301
2 302 270
2 303 295
2 302 303
2 304 275
2 305 277
2 304 305
2 306 297
2 307 269
2 306 307
2 285 308
2 315 252
2 308 309
2 310 88
2 311 256
2 310 311
2 312 251
2 313 268
2 312 313
2 314 262
2 315 309
2 314 315
2 316 159
2 317 276
2 316 317

CELL_TYPES 477
3
3
3
3
3
3
3
3
3
3
3
3
3
3
3
3
3
3
3
3
3
3
3
3
3
3
3
3
3
3
3
3
3
3
3
3
3
3
3
3
3
3
3
3
3
3
3
3
3
3
3
3
3
3
3
3
3
3
3
3
3
3
3
3
3
3
3
3
3
3
3
3
3
3
3
3
3
3
3
3
3
3
3
3
3
3
3
3
3
3
3
3
3
3
3
3
3
3
3
3
3
3
3
3
3
3
3
3
3
3
3
3
3
3
3
3
3
3
3
3
3
3
3
3
3
3
3
3
3
3
3
3
3
3
3
3
3
3
3
3
3
3
3
3
3
3
3
3
3
3
3
3
3
3
3
3
3
3
3
3
3
3
3
3
3
3
3
3
3
3
3
3
3
3
3
3
3
3
3
3
3
3
3
3
3
3
3
3
3
3
3
3
3
3
3
3
3
3
3
3
3
3
3
3
3
3
3
3
3
3
3
3
3
3
3
3
3
3
3
3
3
3
3
3
3
3
3
3
3
3
3
3
3
3
3
3
3
3
3
3
3
3
3
3
3
3
3
3
3
3
3
3
3
3
3
3
3
3
3
3
3
3
3
3
3
3
3
3
3
3
3
3
3
3
3
3
3
3
3
3
3
3
3
3
3
3
3
3
3
3
3
3
3
3
3
3
3
3
3
3
3
3
3
3
3
3
3
3
3
3
3
3
3
3
3
3
3
3
3
3
3
3
3
3
3
3
3
3
3
3
3
3
3
3
3
3
3
3
3
3
3
3
3
3
3
3
3
3
3
3
3
3
3
3
3
3
3
3
3
3
3
3
3
3
3
3
3
3
3
3
3
3
3
3
3
3
3
3
3
3
3
3
3
3
3
3
3
3
3
3
3
3
3
3
3
3
3
3
3
3
3
3
3
3
3
3
3
3
3
3
3
3
3
3
3
3
3
3
3
3
3
3
3
3
3
3
3
3
3
3
3
3
3
3
3
3
3
3
3
3
3
3
3
3
3
3
3
3
3
3
3
3
3
3
3
3
3
3
3
3
3
3
3
3
3
3
3
3
3
3
3
3
3
3
3
3
3

CELL_DATA 477
SCALARS current_Length float
LOOKUP_TABLE default
0.950337
0.975285
1.42615
1.53099
1.58315
1.49481
0.622199
1.03967
1.64983
1.20313
0.946304
1.27132
1.87043
1.46031
0.347553
0.275419
1.55955
0.981114
0.0838864
0.611797
0.563998
0.657809
0.382222
0.676185
1.1811
1.21415
0.825315
1.02919
1.14187
1.88154
0.30833
0.798903
1.69984
0.572145
1.41891
0.979501
0.757012
0.863984
1.10874
1.0966
1.29302
0.82557
2.07061
0.00249888
1.44404
1.52881
1.27515
1.07419
0.775955
0.817371
0.612977
0.614203
1.14652
1.54057
1.57347
1.174
1.14994
1.29636
1.23015
1.48483
0.947125
0.632114
0.826224
0.649214
0.914974
0.691699
1.256
2.09295
1.62894
1.56809
0.714016
1.13921
1.60479
1.0224
0.862497
0.596031
1.1809
1.60481
0.764912
1.1352
0.938857
1.68501
0.41179
0.695151
0.668172
0.499656
1.08222
0.112114
1.4226
0.0024972
1.43322
1.48602
0.907973
0.893413
0.998767
1.51897
0.274959
1.62643
0.377219
0.81796
1.3601
1.39743
0.803232
1.21317
0.473388
0.633103
1.09327
0.579141
0.808185
1.49689
1.20006
1.0062
1.00895
1.09608
1.23578
1.50848
0.993725
0.470616
1.49006
0.906996
1.07327
0.996473
1.63971
0.855613
0.905816
1.87329
0.694192
1.53669
1.89528
0.00250706
1.27065
0.96627
1.98903
1.3905
2.42933
1.02535
2.56525
1.22409
2.10465
2.13546
1.64159
2.96412
0.403516
2.94966
1.40434
1.91395
2.02659
0.977685
2.00795
2.16558
1.94541
1.0215
1.80561
1.87073
1.66382
1.96158
1.63359
1.99835
1.4446
1.89065
1.90449
1.50808
2.44315
1.14043
2.64477
0.945159
2.4069
2.49898
1.79178
2.68042
0.710028
2.6584
1.45479
1.94255
1.63271
2.01076
2.18139
1.81698
2.21878
1.1304
0.725893
0.390459
2.80127
1.37008
1.06416
2.06625
1.29225
1.5306
1.51922
0.568099
0.914711
1.74172
1.6523
1.08577
1.03494
1.17845
1.35034
0.985144
1.41
1.3534
1.42548
0.999326
1.12973
2.00929
1.01426
1.63303
1.20186
0.456784
2.07034
0.0225846
1.58675
1.45279
1.34736
0.970087
1.70275
1.19151
0.504109
1.47393
1.8452
1.52054
1.66037
2.02198
0.84837
1.0797
2.12269
0.49758
0.596006
2.06918
0.0521395
1.17077
1.66616
1.29496
1.77943
1.63495
0.756876
1.74178
2.60753
0.687058
1.69532
1.9428
0.691685
1.10634
1.35917
1.07111
1.13272
1.68299
0.898626
0.164515
3.01983
1.00407
0.88315
1.77448
0.718144
1.72497
2.70516
1.16517
1.00762
1.29943
0.855413
0.991017
2.52296
1.51709
0.857076
1.21877
0.344096
0.876157
1.84095
0.831028
1.7705
2.49473
2.13906
1.22049
1.94174
0.898991
1.91305
2.29456
1.19038
1.00681
1.60314
0.400249
1.12104
2.80686
1.46284
0.274244
2.72872
1.68131
0.645059
1.90339
0.991895
0.790612
1.44357
1.0188
0.621773
2.89137
1.12844
1.1701
1.8524
0.913505
1.81003
1.15493
1.46363
1.60606
0.794541
1.87109
1.67847
0.75246
2.18763
1.25179
2.06632
0.812254
1.90456
1.29101
1.1663
1.44544
1.74341
1.17239
1.01766
1.09859
1.48896
1.59613
0.243378
0.819487
1.24988
1.10597
0.073319
1.46398
2.86137
0.73036
1.75608
1.76282
1.44926
0.156856
2.71648
1.63169
0.728419
1.91454
0.852933
0.937285
2.11961
1.38023
0.912717
2.04481
1.63826
1.19529
0.775626
1.33586
0.776179
1.40575
0.900936
1.85195
1.68387
1.66217
0.839992
1.82849
0.518742
1.03563
1.0001
1.02762
1.54967
1.70268
1.10759
0.757284
0.758074
1.11308
0.981856
2.4723
0.565598
1.9742
1.13535
1.35661
0.441138
1.52864
1.54807
1.69487
1.64042
1.22127
0.691778
0.51675
0.00672811
0.214548
1.62579
1.45089
2.30071
1.77132
1.38648
1.33432
1.51096
1.71178
1.54802
0.565134
2.27498
1.43859
1.76803
0.420964
1.32252
2.33699
1.59497
0.00250655
1.25597
1.03899
0.929717
1.45277
1.8935
0.990356
1.05596
1.61511
1.21178
1.20069
1.61592
0.905315
1.87765
1.32951
1.15075
1.35591
0.820593
1.62038
1.45157
1.69987
0.945543
1.89108
1.34432
1.29344
1.11737
0.493745
0.99654
1.89986
0.775302
0.436798
1.4898
0.601996
1.50754
2.13336
0.716458
1.30574
1.5491
1.44779
0.782807
1.3257
1.70039
0.958002
1.82768
1.85529
1.47477
0.604638
1.60293
1.2486
0.842235
0.913299
0.645181
1.62433
0.989115
1.89807
2.25588
1.30732
1.21062
1.53545
1.62709
1.2466
1.28072
0.919911
1.20559
1.27787
1.38709
1.22337
1.22958
0.769346
0.488497
2.0696
3.30995
0
0
0
0
0
0
0
0

SCALARS edge_force float
LOOKUP_TABLE default
0.5
0.5
0.5
0.5
0.5
0.5
0.5
0.5
0.5
0.5
0.5
0.5
0.5
0.5
0.5
0.5
0.5
0.5
0.5
0.5
0.5
0.5
0.5
0.5
0.5
0.5
0.5
0.5
0.5
0.5
0.5
0.5
0.5
0.5
0.5
0.5
0.5
0.5
0.5
0.5
0.5
0.5
0.5
0.5
0.5
0.5
0.5
0.5
0.5
0.5
0.5
0.5
0.5
0.5
0.5
0.5
0.5
0.5
0.5
0.5
0.5
0.5
0.5
0.5
0.5
0.5
0.5
0.5
0.5
0.5
0.5
0.5
0.5
0.5
0.5
0.5
0.5
0.5
0.5
0.5
0.5
0.5
0.5
0.5
0.5
0.5
0.5
0.5
0.5
0.5
0.5
0.5
0.5
0.5
0.5
0.5
0.5
0.5
0.5
0.5
0.5
0.5
0.5
0.5
0.5
0.5
0.5
0.5
0.5
0.5
0.5
0.5
0.5
0.5
0.5
0.5
0.5
0.5
0.5
0.5
0.5
0.5
0.5
0.5
0.5
0.5
0.5
0.5
0.5
0.5
0.5
0.5
0.5
2
0.5
2
0.5
2
0.5
0.5
2
0.5
2
0.5
2
0.5
0.5
2
0.5
2
0.5
2
0.5
0.5
2
0.5
2
0.5
2
0.5
0.5
2
0.5
2
0.5
2
0.5
0.5
2
0.5
2
0.5
2
0.5
2
2
2
2
2
2
2
0.5
0.5
2
0.5
0.5
0.5
0.5
0.5
0.5
0.5
0.5
0.5
0.5
0.5
0.5
0.5
0.5
0.5
0.5
0.5
0.5
0.5
0.5
0.5
0.5
0.5
0.5
0.5
0.5
0.5
0.5
0.5
0.5
0.5
0.5
0.5
0.5
0.5
0.5
0.5
0.5
0.5
0.5
0.5
0.5
0.5
0.5
0.5
0.5
0.5
0.5
0.5
0.5
0.5
2
0.5
0.5
2
0.5
0.5
0.5
0.5
0.5
0.5
0.5
0.5
0.5
0.5
0.5
0.5
0.5
0.5
2
0.5
0.5
0.5
0.5
2
0.5
0.5
0.5
0.5
0.5
0.5
0.5
0.5
0.5
2
0.5
2
0.5
0.5
0.5
2
0.5
0.5
0.5
0.5
0.5
2
0.5
2
0.5
0.5
2
0.5
0.5
0.5
0.5
0.5
2
0.5
0.5
0.5
0.5
0.5
0.5
0.5
0.5
0.5
0.5
0.5
0.5
0.5
0.5
2
0.5
0.5
0.5
0.5
0.5
0.5
0.5
0.5
0.5
0.5
0.5
0.5
0.5
0.5
0.5
0.5
0.5
0.5
2
0.5
0.5
2
0.5
2
0.5
0.5
2
0.5
0.5
0.5
0.5
0.5
0.5
0.5
0.5
0.5
0.5
0.5
0.5
0.5
0.5
0.5
0.5
0.5
2
0.5
0.5
0.5
0.5
0.5
0.5
0.5
0.5
0.5
0.5
0.5
2
0.5
0.5
0.5
0.5
0.5
0.5
0.5
0.5
0.5
2
0.5
0.5
0.5
0.5
0.5
0.5
0.5
0.5
2
0.5
0.5
0.5
0.5
0.5
0.5
0.5
2
0.5
0.5
0.5
2
0.5
0.5
0.5
0.5
0.5
0.5
0.5
0.5
0.5
0.5
0.5
0.5
0.5
2
0.5
0.5
0.5
0.5
0.5
0.5
0.5
0.5
2
0.5
0.5
0.5
0.5
0.5
0.5
0.5
0.5
0.5
0.5
0.5
0.5
2
0.5
0.5
0.5
0.5
0.5
0.5
0.5
2
0.5
0.5
0.5
0.5
0.5
0.5
0.5
0.5
0.5
0.5
0.5
0.5
2
0.5
0.5
0.5
0.5
0.5
0.5
0.5
0.5
0.5
0.5
0.5
0.5
0.5
0.5
0.5
0.5
0
0
0
0
0
0
0
0
0
