# vtk DataFile Version 3.0
2D-vertex
ASCII
DATASET UNSTRUCTURED_GRID

POINTS 472 float
0.0374688 -2.46584 0
2.5125 -2.37739 0
2.9463 -1.45592 0
1.98087 -0.342122 0
-0.303964 -0.081308 0
-1.09281 -1.52272 0
3.48953 -1.44888 0
4.10559 -0.625461 0
3.26444 0.916799 0
2.17833 0.652509 0
1.06171 1.94138 0
-0.628581 2.51781 0
-1.4553 1.28892 0
-1.63862 1.25268 0
-2.21939 -0.355191 0
-1.75114 -1.25975 0
4.67713 -0.813998 0
5.55057 0.0256458 0
3.80992 1.62339 0
3.50532 1.56563 0
2.69606 2.55516 0
1.5888 2.52648 0
1.13813 6.04178 0
0.158145 6.05093 0
-0.68661 4.26907 0
-1.99034 3.4793 0
-1.99119 1.62803 0
-3.316 1.38853 0
-3.85524 0.407441 0
-3.58202 -0.313336 0
6.62768 -0.0200546 0
7.29993 0.684431 0
7.1855 2.00149 0
5.04166 3.2392 0
5.55466 3.8002 0
3.2608 5.18348 0
2.59956 6.41904 0
1.62735 6.62746 0
0.715005 9.57814 0
-0.974607 9.65798 0
-0.685605 6.89226 0
-2.34199 6.05972 0
-3.38838 4.64564 0
-4.40482 4.72037 0
-5.15637 3.40766 0
-6.59193 3.15102 0
-6.90542 2.12241 0
-5.41382 0.705376 0
7.66484 2.62679 0
7.38484 3.65593 0
6.68068 4.08865 0
6.08753 6.14095 0
3.76568 7.38692 0
3.72562 8.14489 0
2.283 9.66945 0
2.85292 10.3808 0
-2.00564 10.9489 0
-1.96616 10.2474 0
-3.1752 9.08249 0
-2.90021 7.05671 0
-4.62171 7.47909 0
-5.99733 6.26857 0
-7.96705 4.91571 0
-7.83787 4.35994 0
8.35741 4.03583 0
8.35765 4.03832 0
7.04674 6.09265 0
7.52541 7.30337 0
6.38672 8.54454 0
6.63657 9.23298 0
6.00965 10.1763 0
5.88074 10.5065 0
-2.77986 13.2138 0
-2.96893 13.0287 0
-6.42137 10.7296 0
-5.73912 9.80809 0
-6.45812 8.61013 0
-6.34819 8.36772 0
-8.94498 5.48684 0
-8.79418 5.09885 0
9.90349 4.26803 0
10.2817 5.23158 0
9.57055 6.26963 0
10.7462 6.62486 0
10.5717 8.17977 0
10.8325 8.94477 0
10.2597 13.8221 0
11.0023 16.3102 0
-9.77508 16.5995 0
-9.73963 16.3372 0
-10.3923 10.2373 0
-10.0701 9.62813 0
-10.4101 9.03415 0
-9.66134 7.86966 0
-10.4348 6.64138 0
-9.98779 5.62297 0
3.3468 -4.26433 0
4.57705 -3.7654 0
5.43578 -3.39293 0
7.8669 -1.89279 0
9.22688 -0.507021 0
10.6684 1.76437 0
10.7723 1.93285 0
11.5408 2.98978 0
12.4274 4.88885 0
12.6818 5.67535 0
13.0552 9.23059 0
13.3181 16.9174 0
-12.7812 17.428 0
-12.8385 10.2712 0
-12.7807 8.92718 0
-12.4368 6.33064 0
-11.5984 4.36462 0
-10.7593 3.23885 0
-10.1577 2.48547 0
-9.25512 1.11468 0
-7.36203 -1.06784 0
-5.31763 -2.52096 0
-3.24592 -3.57371 0
-0.27136 -4.49066 0
12.9454 11.1142 0
9.27387 11.0173 0
-12.9904 13.1534 0
-10.3632 13.6017 0
-0.466307 3.95696 0
0.904656 4.01576 0
-1.96375 5.99557 0
-1.31845 4.28208 0
4.58944 5.33489 0
5.02484 6.24958 0
0.408476 11.0242 0
0.19266 10.0922 0
-1.22372 8.16437 0
-2.51378 7.90575 0
6.08685 6.14335 0
5.38011 8.07429 0
4.41713 8.59291 0
4.4286 9.78594 0
2.46387 11.2144 0
2.46176 11.213 0
-2.70229 11.3262 0
-4.24543 9.90793 0
-3.81093 9.14304 0
-4.72623 8.05955 0
1.14924 1.32819 0
-0.349932 0.375667 0
6.37228 2.27064 0
5.21387 0.747375 0
5.03964 3.24067 0
3.03685 4.09358 0
-9.27536 11.7531 0
-6.2122 11.3306 0
3.03435 4.09347 0
1.57827 4.8166 0
-9.62232 7.79022 0
-8.20228 7.12335 0
-1.13066 -1.54017 0
-1.63914 -4.20022 0
3.05274 30.3774 0
3.24764 31.9284 0
0.869214 -2.15135 0
1.03328 -0.716844 0
2.64413 8.57267 0
1.42097 7.52647 0
9.09002 10.5085 0
6.02517 10.2026 0
9.01353 22.3314 0
0.422934 12.6894 0
-3.02213 -0.591674 0
-3.81045 -3.31476 0
-4.61132 2.45687 0
-5.52006 1.32916 0
-5.95655 -2.12186 0
-4.82517 0.286772 0
0.42605 8.05883 0
-0.584689 7.61966 0
9.52215 6.08835 0
7.86996 5.3628 0
5.34173 -0.496355 0
6.96118 -2.55234 0
1.28417 -4.61914 0
1.39703 -2.60414 0
-6.47823 1.47765 0
-8.10469 -0.352286 0
-5.64266 5.16018 0
-6.96702 3.99965 0
7.47226 2.13061 0
9.84073 0.350258 0
-12.6651 7.70882 0
-9.66276 7.86757 0
13.0824 7.71316 0
11.0147 7.6585 0
-3.00064 3.7082 0
-3.92884 2.4216 0
-9.73086 1.88324 0
-6.96851 3.44973 0
-3.77437 6.89754 0
-4.57047 5.03761 0
-7.07612 7.25929 0
-6.65959 6.39151 0
8.5524 7.44803 0
8.81473 8.00019 0
-0.798954 12.5803 0
-0.693218 11.7867 0
12.9486 11.1238 0
10.5422 12.3459 0
10.3558 14.8923 0
2.31128 11.511 0
8.28943 9.1565 0
9.66214 9.97351 0
-7.64329 8.77466 0
-7.97944 9.6131 0
-2.26091 14.8076 0
1.08175 13.8628 0
-10.2066 14.1955 0
-4.33039 13.0303 0
9.66134 9.97589 0
12.9654 10.4099 0
-10.7864 15.6592 0
-13.0039 16.3344 0
-12.8507 11.3948 0
-9.52581 11.3758 0
12.4839 19.7485 0
10.2715 18.129 0
8.9236 11.4742 0
6.84273 11.573 0
-9.52562 11.3733 0
-7.63775 10.4866 0
2.74405 14.4221 0
4.59928 13.0009 0
-4.73976 11.6616 0
-3.90791 10.8116 0
5.40209 12.8165 0
4.50176 11.2921 0
13.2762 12.9569 0
10.7762 13.0104 0
-2.91386 14.4632 0
-4.8545 14.0342 0
-4.1762 28.6236 0
0.215557 15.2738 0
-6.86085 12.032 0
-4.79634 13.4068 0
-12.8892 12.1833 0
-9.76394 12.4945 0
6.70652 16.835 0
8.66502 15.4582 0
-0.887797 14.1217 0
-0.564372 12.8067 0
-9.93203 20.2727 0
-12.3235 20.6299 0
2.2352 29.962 0
2.6585 15.3534 0
-3.05457 16.8659 0
-9.60384 20.7258 0
-10.851 14.7583 0
-13.1157 14.3694 0
-6.83908 15.7736 0
-6.42821 14.4892 0
-6.71333 12.6043 0
-7.57475 13.7353 0
13.4255 15.0333 0
11.0179 15.4721 0
-9.53239 22.5307 0
-11.2804 23.9398 0
6.57619 12.5737 0
5.40391 12.8148 0
10.344 16.8724 0
8.65785 16.2837 0
4.39289 13.951 0
7.12579 16.5185 0
-2.01764 15.9216 0
-0.310253 16.1927 0
10.3882 26.7028 0
8.88574 25.5596 0
0.58298 15.2029 0
1.64566 15.9905 0
7.04642 27.0766 0
4.48725 16.1147 0
13.3478 13.9953 0
10.5662 14.2731 0
-8.59964 15.6012 0
-8.78612 14.6661 0
-9.64387 12.7974 0
-7.61973 13.3684 0
-9.66494 19.6196 0
-6.39553 17.2758 0
1.32703 30.4822 0
1.3136 32.0759 0
2.10997 13.7422 0
2.87271 12.3197 0
-3.9831 16.1509 0
-4.06555 15.2618 0
-12.5128 19.358 0
-10.113 19.0455 0
0.0721837 17.4787 0
-0.0877107 17.3872 0
8.25414 13.7541 0
7.80076 14.5336 0
9.18874 12.1063 0
8.09563 13.353 0
-10.0378 21.618 0
-12.0439 22.0092 0
-2.52939 16.7773 0
-1.50465 17.9808 0
1.86917 16.9183 0
3.85143 17.0476 0
6.82317 14.5845 0
6.59239 14.9868 0
-7.3567 19.0105 0
-7.07669 19.2746 0
-9.31946 17.0316 0
-6.68467 16.7094 0
4.43793 15.9849 0
5.15116 14.9585 0
-8.2003 24.4454 0
-3.65757 18.3338 0
9.39379 28.0431 0
8.01149 26.8152 0
-5.58315 30.4073 0
-4.74003 28.6693 0
9.02166 18.374 0
8.06986 16.8144 0
11.8609 22.0809 0
9.62071 21.651 0
4.6377 18.3114 0
6.46407 19.467 0
1.52746 19.205 0
3.89629 18.6805 0
0.099981 25.4889 0
-2.44671 24.823 0
-2.50878 22.6218 0
-4.04171 20.2586 0
-6.46105 16.2502 0
-4.25238 15.1939 0
-8.54942 22.5291 0
-7.65901 20.629 0
6.70399 24.8325 0
7.32179 21.6303 0
-12.6603 18.1744 0
-9.61687 17.8092 0
-9.56952 17.8762 0
-7.3482 18.2325 0
0.0234024 19.4887 0
0.328738 19.0948 0
4.14075 29.5933 0
2.07426 22.4665 0
5.12416 31.4627 0
4.65819 29.8152 0
-9.24826 27.5616 0
-7.8456 26.1309 0
-5.45198 17.4148 0
-5.07457 18.3141 0
8.75273 18.9889 0
7.50448 18.5684 0
1.75029 17.0827 0
2.24736 18.1282 0
10.587 17.5343 0
13.0908 18.0119 0
12.2403 20.341 0
8.97255 18.8474 0
-6.85493 26.2618 0
-3.92279 20.6266 0
-1.85901 18.9814 0
-3.20978 19.0729 0
3.27158 22.9022 0
4.12588 22.2927 0
-5.60058 19.1267 0
-5.17235 20.0636 0
4.68007 18.0438 0
6.6845 17.3631 0
-1.39429 22.2828 0
0.0927821 23.6768 0
1.21466 28.0208 0
3.98183 28.2949 0
-1.82627 29.8491 0
-2.21659 31.6554 0
-1.08807 29.5807 0
-1.44823 25.8431 0
-10.4114 25.8383 0
-8.4627 25.1314 0
-1.47653 19.4913 0
-3.09961 20.9244 0
-6.21696 22.4008 0
-5.15404 22.2587 0
6.08433 28.1277 0
5.00927 27.5236 0
5.18741 21.0198 0
6.65408 21.9639 0
8.31069 25.7 0
7.3194 24.6735 0
11.2798 24.7079 0
9.41772 24.3456 0
-5.5542 27.5518 0
-3.0432 22.3007 0
7.15924 30.3096 0
5.98893 29.0495 0
2.5105 20.2998 0
3.89206 19.6409 0
-8.33302 28.5108 0
-6.68149 27.0011 0
0.322305 25.7088 0
3.47931 24.0525 0
0.535441 20.7534 0
1.84343 21.1284 0
-7.56435 20.7963 0
-6.15839 21.0744 0
9.07354 20.294 0
7.46425 20.4498 0
-0.993294 21.3555 0
-1.80426 20.3707 0
12.0966 20.8758 0
9.07543 20.2924 0
-1.91395 24.9837 0
-0.691047 23.4925 0
-4.83328 22.8726 0
-4.0004 23.03 0
-2.89508 25.1249 0
-3.78042 24.6191 0
-10.9836 24.5524 0
-8.72592 23.829 0
4.59181 24.4502 0
5.47094 23.8668 0
0.650928 28.2249 0
0.424723 29.8796 0
-6.81688 24.2019 0
-6.13722 25.0256 0
-0.3064 30.1965 0
-0.522148 31.9574 0
-3.17826 27.044 0
-1.76268 27.0754 0
8.89442 23.4188 0
7.67496 23.5319 0
8.35703 29.1941 0
6.87247 27.8126 0
5.49373 23.0725 0
6.59867 22.5452 0
2.4859 20.7038 0
4.10621 21.639 0
2.87391 24.6521 0
2.91917 26.539 0
5.19991 20.442 0
6.46735 19.7383 0
1.32137 23.1975 0
1.77419 24.4623 0
11.6076 23.3306 0
9.23193 22.9198 0
-0.803787 27.8239 0
-0.120251 27.5735 0
-3.41425 29.6046 0
-3.95378 31.1367 0
0.0611952 21.3618 0
0.703844 23.0535 0
-5.829 24.9618 0
-5.17273 25.4828 0
-8.33499 22.8371 0
-6.21826 22.3986 0
5.00525 26.0886 0
6.24536 26.1373 0
-6.85573 29.6747 0
-5.84571 27.6038 0
-4.96588 26.5466 0
-3.34792 26.675 0
2.22749 28.7489 0
3.30832 28.0205 0
-2.4204 29.3319 0
-2.26935 27.3421 0
4.76714 26.354 0
3.33321 26.0457 0
1.72907 26.4847 0
1.10605 25.5745 0
-3.2013 26.1731 0
-1.50005 26.0462 0

CELLS 708 2124
2 160 0
2 1 2
2 2 3
2 161 4
2 4 5
2 5 0
2 2 6
2 6 7
2 7 8
2 8 9
2 3 9
2 9 144
2 10 11
2 11 12
2 145 4
2 12 13
2 13 14
2 15 14
2 5 156
2 7 16
2 17 178
2 147 17
2 19 18
2 19 8
2 20 19
2 21 20
2 10 21
2 153 125
2 23 22
2 24 23
2 24 124
2 127 24
2 26 25
2 26 13
2 27 26
2 28 27
2 29 28
2 14 168
2 30 17
2 30 31
2 32 31
2 32 146
2 18 33
2 33 148
2 128 35
2 20 152
2 35 36
2 37 36
2 22 37
2 37 163
2 38 131
2 175 40
2 40 23
2 126 40
2 42 41
2 25 192
2 43 42
2 43 44
2 193 27
2 45 44
2 46 45
2 47 171
2 173 47
2 48 186
2 48 49
2 49 50
2 34 50
2 50 51
2 52 129
2 36 52
2 52 53
2 53 162
2 54 38
2 55 54
2 139 55
2 57 56
2 39 57
2 58 57
2 59 133
2 41 59
2 59 196
2 61 60
2 197 43
2 199 61
2 62 63
2 195 185
2 49 64
2 64 65
2 177 65
2 51 134
2 67 66
2 68 67
2 53 136
2 69 68
2 70 69
2 55 137
2 165 70
2 233 71
2 73 72
2 140 56
2 215 73
2 74 75
2 58 142
2 76 75
2 77 76
2 60 143
2 77 198
2 78 79
2 79 62
2 65 80
2 80 81
2 81 176
2 67 200
2 82 83
2 83 191
2 69 208
2 84 85
2 164 216
2 71 225
2 86 279
2 158 250
2 88 89
2 290 252
2 254 214
2 90 91
2 91 211
2 91 92
2 92 93
2 93 210
2 189 93
2 94 95
2 95 78
2 96 1
2 96 97
2 97 6
2 97 98
2 16 98
2 179 99
2 99 30
2 31 100
2 187 101
2 101 48
2 101 102
2 102 64
2 102 103
2 103 80
2 81 104
2 104 105
2 83 105
2 105 190
2 85 106
2 217 120
2 87 107
2 108 88
2 255 122
2 109 90
2 109 110
2 92 110
2 110 188
2 111 94
2 95 112
2 112 113
2 113 79
2 113 114
2 63 114
2 114 194
2 115 46
2 116 47
2 116 172
2 117 29
2 169 118
2 118 15
2 157 119
2 0 119
2 119 180
2 99 100
2 103 104
2 249 292
2 111 112
2 183 116
2 120 204
2 121 224
2 120 121
2 122 242
2 123 282
2 122 123
2 124 11
2 125 21
2 124 125
2 41 126
2 127 25
2 126 127
2 34 128
2 129 51
2 128 129
2 203 130
2 131 39
2 130 131
2 39 132
2 133 58
2 132 133
2 134 66
2 135 68
2 134 135
2 136 135
2 137 70
2 136 137
2 207 138
2 130 139
2 139 138
2 140 73
2 75 141
2 231 140
2 142 141
2 143 77
2 142 143
2 144 10
2 145 12
2 144 145
2 146 33
2 147 18
2 146 147
2 148 34
2 149 35
2 148 149
2 221 150
2 151 74
2 150 240
2 152 149
2 153 22
2 152 153
2 94 154
2 155 78
2 154 155
2 156 15
2 157 118
2 156 157
2 266 87
2 357 222
2 159 158
2 181 160
2 161 3
2 160 161
2 162 54
2 163 174
2 162 163
2 164 121
2 71 165
2 165 164
2 445 166
2 247 167
2 337 166
2 168 29
2 169 117
2 168 169
2 44 170
2 171 182
2 170 171
2 172 117
2 173 28
2 172 173
2 174 38
2 175 132
2 174 175
2 176 82
2 177 66
2 176 177
2 178 16
2 179 98
2 178 179
2 180 96
2 181 1
2 180 181
2 182 46
2 183 115
2 182 183
2 61 184
2 185 63
2 184 185
2 186 32
2 187 100
2 186 187
2 188 111
2 189 154
2 188 189
2 190 106
2 191 84
2 190 191
2 192 42
2 193 170
2 192 193
2 194 115
2 195 45
2 194 195
2 196 60
2 197 184
2 196 197
2 198 155
2 199 62
2 198 199
2 200 82
2 201 84
2 200 201
2 72 202
2 203 56
2 202 203
2 204 234
2 205 235
2 205 204
2 261 206
2 167 207
2 206 245
2 208 201
2 209 85
2 208 209
2 210 76
2 227 74
2 210 211
2 236 72
2 213 167
2 239 274
2 214 123
2 230 215
2 241 237
2 216 209
2 217 106
2 216 217
2 89 218
2 219 108
2 218 219
2 220 109
2 221 226
2 220 221
2 222 358
2 320 223
2 223 222
2 224 298
2 264 225
2 225 224
2 226 90
2 227 211
2 226 227
2 228 288
2 289 229
2 228 268
2 151 230
2 231 141
2 230 231
2 229 232
2 233 138
2 265 233
2 234 278
2 235 86
2 235 234
2 236 212
2 257 237
2 291 236
2 248 284
2 246 239
2 271 295
2 240 151
2 241 215
2 240 258
2 242 220
2 243 150
2 242 243
2 277 244
2 232 306
2 245 267
2 212 246
2 247 202
2 246 247
2 253 248
2 301 249
2 249 248
2 448 238
2 251 228
2 294 354
2 252 302
2 300 253
2 335 309
2 218 254
2 255 219
2 254 255
2 280 256
2 259 281
2 256 257
2 258 241
2 259 257
2 283 259
2 260 107
2 261 87
2 260 261
2 238 319
2 449 318
2 263 262
2 299 264
2 232 265
2 265 264
2 223 356
2 244 269
2 267 266
2 268 229
2 321 267
2 313 307
2 212 270
2 271 239
2 270 271
2 272 316
2 273 388
2 272 273
2 274 213
2 275 251
2 274 275
2 276 433
2 277 312
2 457 276
2 278 260
2 279 206
2 278 279
2 89 280
2 281 214
2 280 281
2 282 243
2 283 258
2 282 283
2 284 293
2 311 285
2 308 284
2 250 286
2 287 159
2 286 287
2 288 213
2 289 207
2 288 289
2 285 350
2 333 291
2 291 290
2 292 338
2 293 340
2 293 292
2 403 345
2 330 370
2 295 294
2 86 296
2 297 245
2 296 297
2 298 205
2 299 296
2 298 299
2 262 300
2 301 263
2 300 301
2 302 270
2 303 295
2 302 303
2 304 275
2 305 277
2 304 305
2 306 297
2 307 269
2 306 307
2 308 341
2 315 252
2 309 308
2 88 310
2 311 332
2 310 311
2 312 251
2 313 268
2 312 313
2 314 419
2 309 366
2 315 363
2 316 432
2 276 317
2 317 316
2 318 458
2 319 392
2 319 318
2 359 320
2 269 321
2 321 320
2 322 444
2 166 323
2 323 322
2 324 368
2 369 353
2 324 325
2 343 326
2 327 324
2 326 355
2 250 462
2 416 329
2 377 328
2 330 329
2 424 314
2 361 381
2 332 256
2 333 237
2 332 333
2 262 334
2 335 253
2 334 404
2 421 336
2 441 407
2 435 431
2 338 108
2 339 310
2 338 339
2 340 339
2 341 285
2 340 341
2 303 362
2 343 294
2 342 343
2 344 158
2 328 371
2 373 344
2 346 159
2 347 344
2 346 347
2 348 378
2 349 379
2 348 349
2 350 290
2 351 315
2 350 351
2 411 352
2 325 353
2 353 352
2 354 304
2 355 327
2 354 355
2 356 266
2 357 107
2 356 357
2 358 410
2 352 359
2 359 358
2 360 349
2 331 361
2 360 425
2 362 380
2 331 363
2 363 362
2 345 364
2 437 365
2 365 364
2 366 351
2 367 331
2 366 367
2 368 305
2 369 244
2 368 369
2 408 450
2 451 371
2 371 413
2 422 447
2 456 466
2 439 468
2 426 376
2 427 375
2 374 375
2 376 374
2 412 377
2 446 376
2 378 418
2 379 314
2 379 378
2 380 342
2 393 330
2 409 380
2 455 382
2 383 361
2 382 383
2 395 384
2 385 373
2 384 385
2 386 440
2 337 387
2 387 386
2 388 317
2 389 336
2 388 389
2 390 272
2 391 273
2 390 391
2 459 392
2 381 393
2 415 417
2 394 346
2 395 347
2 394 395
2 326 396
2 397 327
2 396 397
2 398 348
2 399 360
2 398 399
2 328 400
2 364 401
2 469 443
2 342 402
2 403 436
2 402 403
2 404 335
2 405 367
2 404 405
2 323 406
2 407 337
2 406 407
2 370 408
2 409 381
2 408 409
2 410 322
2 411 406
2 410 411
2 329 412
2 413 370
2 412 413
2 383 414
2 415 393
2 414 415
2 238 428
2 392 460
2 417 416
2 418 263
2 419 454
2 418 419
2 401 420
2 421 434
2 420 421
2 372 422
2 423 286
2 422 423
2 382 424
2 425 452
2 424 425
2 423 426
2 427 287
2 426 427
2 428 461
2 471 429
2 429 465
2 391 430
2 431 389
2 430 431
2 432 394
2 433 384
2 432 433
2 434 365
2 435 387
2 434 435
2 436 396
2 437 386
2 436 437
2 438 401
2 373 463
2 438 467
2 440 397
2 441 325
2 440 441
2 345 442
2 443 438
2 442 443
2 444 390
2 445 430
2 444 445
2 429 446
2 447 400
2 446 447
2 374 464
2 449 375
2 448 449
2 450 402
2 451 442
2 450 451
2 452 414
2 453 417
2 452 453
2 454 334
2 455 405
2 454 455
2 420 456
2 457 336
2 456 457
2 458 398
2 459 399
2 458 459
2 460 453
2 461 470
2 460 461
2 462 372
2 463 439
2 462 463
2 464 448
2 465 428
2 464 465
2 466 385
2 467 439
2 466 467
2 468 372
2 469 400
2 468 469
2 470 416
2 471 377
2 470 471

CELL_TYPES 708
3
3
3
3
3
3
3
3
3
3
3
3
3
3
3
3
3
3
3
3
3
3
3
3
3
3
3
3
3
3
3
3
3
3
3
3
3
3
3
3
3
3
3
3
3
3
3
3
3
3
3
3
3
3
3
3
3
3
3
3
3
3
3
3
3
3
3
3
3
3
3
3
3
3
3
3
3
3
3
3
3
3
3
3
3
3
3
3
3
3
3
3
3
3
3
3
3
3
3
3
3
3
3
3
3
3
3
3
3
3
3
3
3
3
3
3
3
3
3
3
3
3
3
3
3
3
3
3
3
3
3
3
3
3
3
3
3
3
3
3
3
3
3
3
3
3
3
3
3
3
3
3
3
3
3
3
3
3
3
3
3
3
3
3
3
3
3
3
3
3
3
3
3
3
3
3
3
3
3
3
3
3
3
3
3
3
3
3
3
3
3
3
3
3
3
3
3
3
3
3
3
3
3
3
3
3
3
3
3
3
3
3
3
3
3
3
3
3
3
3
3
3
3
3
3
3
3
3
3
3
3
3
3
3
3
3
3
3
3
3
3
3
3
3
3
3
3
3
3
3
3
3
3
3
3
3
3
3
3
3
3
3
3
3
3
3
3
3
3
3
3
3
3
3
3
3
3
3
3
3
3
3
3
3
3
3
3
3
3
3
3
3
3
3
3
3
3
3
3
3
3
3
3
3
3
3
3
3
3
3
3
3
3
3
3
3
3
3
3
3
3
3
3
3
3
3
3
3
3
3
3
3
3
3
3
3
3
3
3
3
3
3
3
3
3
3
3
3
3
3
3
3
3
3
3
3
3
3
3
3
3
3
3
3
3
3
3
3
3
3
3
3
3
3
3
3
3
3
3
3
3
3
3
3
3
3
3
3
3
3
3
3
3
3
3
3
3
3
3
3
3
3
3
3
3
3
3
3
3
3
3
3
3
3
3
3
3
3
3
3
3
3
3
3
3
3
3
3
3
3
3
3
3
3
3
3
3
3
3
3
3
3
3
3
3
3
3
3
3
3
3
3
3
3
3
3
3
3
3
3
3
3
3
3
3
3
3
3
3
3
3
3
3
3
3
3
3
3
3
3
3
3
3
3
3
3
3
3
3
3
3
3
3
3
3
3
3
3
3
3
3
3
3
3
3
3
3
3
3
3
3
3
3
3
3
3
3
3
3
3
3
3
3
3
3
3
3
3
3
3
3
3
3
3
3
3
3
3
3
3
3
3
3
3
3
3
3
3
3
3
3
3
3
3
3
3
3
3
3
3
3
3
3
3
3
3
3
3
3
3
3
3
3
3
3
3
3
3
3
3
3
3
3
3
3
3
3
3
3
3
3
3
3
3
3
3
3
3
3
3
3
3
3
3
3
3
3
3
3
3
3
3
3
3
3
3
3
3
3
3
3
3
3
3
3
3
3
3
3
3
3
3
3
3
3
3
3
3
3
3
3
3
3
3
3
3
3
3
3
3
3
3
3
3
3
3
3
3
3
3
3
3
3
3
3
3
3
3
3
3
3
3
3
3
3
3
3
3
3
3
3
3
3
3
3
3
3
3
3
3
3
3
3
3
3
3
3
3
3
3
3
3
3
3
3
3
3
3

CELL_DATA 708
SCALARS current_Length float
LOOKUP_TABLE default
0.889216
1.01847
1.47397
1.48059
1.64315
1.47208
0.543273
1.02837
1.75673
1.11781
1.01404
1.23108
1.78588
1.4811
0.459281
0.186861
1.70955
1.01857
0.041677
0.601837
0.562224
0.796402
0.310027
0.692099
1.27832
1.10763
0.78751
1.04647
0.980023
1.97196
0.382027
0.631976
1.85127
0.514962
1.34628
1.11952
0.770822
0.836843
1.07808
0.973767
1.32202
0.856605
2.03175
0.00249727
1.33724
1.57507
1.40137
0.9943
0.763123
0.9224
0.732897
0.734366
1.19153
1.56132
1.75913
1.03591
1.01919
1.51263
1.20117
1.45832
1.07532
0.632769
0.722318
0.532248
1.06654
0.826498
1.16238
2.1363
1.69676
1.51546
0.759031
1.16301
1.57065
0.911467
0.919622
0.702585
1.15352
1.67894
0.932842
1.14262
0.888535
1.8324
0.357878
0.673578
0.570591
0.549919
1.04413
0.00250075
1.41142
0.00249142
1.30191
1.68438
0.823966
0.732368
1.13266
1.68422
0.0305606
1.58706
0.264545
0.792256
1.36146
1.1466
0.638608
1.39717
0.266173
0.589792
1.32608
0.416261
0.847163
1.56282
1.03512
1.14498
1.03713
1.2281
1.06795
1.65463
0.808245
0.781089
1.43623
0.545309
0.917
0.264741
1.17186
0.855514
0.689088
2.09071
0.684388
1.38442
2.21169
0.0025197
1.1122
1.05166
2.06315
1.32757
2.5591
0.936033
2.6882
1.12042
2.24562
2.26555
1.63852
3.12492
0.197961
3.20225
1.30674
2.07715
2.17292
0.826601
2.15597
2.07681
2.24099
0.70458
2.394
3.11823
1.22243
2.44647
1.34527
2.3731
1.22383
2.02597
2.0439
1.4041
2.70576
0.964112
2.98245
0.738135
2.55668
2.63436
1.75679
2.80819
0.621095
2.75478
1.39828
2.04824
1.56082
1.94162
2.09587
1.28591
2.13732
1.0313
0.0100582
0.575754
3.67279
0.975353
1.07904
2.66522
1.44827
1.6389
1.37222
0.383649
1.04685
1.83097
1.81299
1.06823
1.01303
1.33984
1.24543
0.956598
1.51424
1.34988
1.31573
0.961224
1.11104
2.05621
1.09375
1.62853
1.19309
0.333597
2.06195
0.00250379
1.72331
1.49703
1.31086
0.879684
1.65098
1.41835
0.619404
1.43383
1.77618
1.6458
1.65484
1.9137
0.76047
1.11267
2.17683
0.452831
0.63633
2.43057
0.00250002
1.30184
1.62576
1.4071
1.79716
1.56883
0.680904
1.7246
2.70822
0.865684
1.8396
1.56325
0.695418
1.01899
1.44386
1.1547
1.1284
1.60955
0.540957
0.336438
3.08008
0.627625
0.994252
1.83124
0.625267
1.70343
2.8349
1.09594
0.969615
1.44829
0.753327
0.977404
2.66112
1.54654
0.839688
1.10203
0.187634
1.10017
1.80448
0.736614
1.74168
2.61719
2.09292
1.13828
2.01816
0.773432
1.86426
2.44828
1.16375
0.942436
1.7609
0.314481
1.05439
2.96299
1.39697
0.087293
3.00655
1.51767
0.684086
2.06841
1.01446
0.683391
1.58647
0.903878
0.480672
3.1756
1.02771
1.07917
2.02315
1.13433
1.97166
0.962571
1.55731
1.7661
0.611313
2.07974
1.55704
0.800603
1.86218
0.704481
2.69894
0.880052
2.22585
1.78293
1.27004
1.55825
1.59745
1.19653
1.24043
0.903309
1.25659
1.34567
0.374192
0.614119
1.42852
0.630139
0.00251155
1.18276
3.33243
1.24716
1.11608
2.31801
1.12363
0.00251761
3.32497
0.640569
1.27366
2.74179
0.685433
1.03562
2.08321
1.42887
0.93791
2.08575
0.929689
1.85607
1.71482
1.5092
0.964602
1.18938
0.823696
2.03937
1.76988
1.04088
0.962137
2.50057
0.738201
1.63815
1.4015
0.705559
1.59515
1.21511
0.955347
0.599061
0.59102
0.789487
0.887892
3.1407
2.33324
2.26829
0.825596
1.53487
0.326041
1.35421
0.559546
1.40736
2.418
1.24208
0.935211
1.72419
0.532594
0.992091
1.47423
0.903268
1.96816
2.29792
1.76896
1.52768
1.34852
2.07817
1.37219
0.369629
1.88722
0.838295
2.44735
0.565678
1.78516
2.24526
1.70765
0.00251305
1.19682
0.673204
0.525343
1.78601
0.97225
0.792026
1.44151
1.14025
1.05871
1.72878
1.66889
0.591931
1.8879
1.42994
1.19659
1.32274
0.756284
0.138843
1.23453
1.04086
0.65403
2.7954
1.3569
1.49637
0.953606
0.325867
1.18549
2.10314
0.728273
0.635928
2.38726
1.04658
1.93965
1.5938
1.03527
0.98448
1.61403
0.953727
0.198805
0.892917
1.19278
1.28946
2.42003
1.35794
1.16488
0.184203
2.00666
1.26564
0.90174
1.37447
0.431234
1.65809
1.04331
2.07609
2.04391
0.997087
1.53623
1.58063
0.954316
1.12899
1.98647
0.97891
1.62189
0.46382
0.778038
1.58699
0.384917
0.627926
0.510771
2.65441
1.88819
1.26103
1.24986
0.810094
1.4835
0.864107
1.54911
0.999838
1.84889
1.46842
1.38266
1.93171
0.475902
0.989341
1.82714
1.27506
0.911876
2.28107
0.270904
1.45774
2.16127
1.20378
0.828193
1.29528
1.21315
0.540487
1.58821
2.20216
1.40468
0.875383
0.608386
1.30668
2.44827
0.982979
1.94725
1.99324
1.56623
1.22472
1.46009
0.756087
0.832515
3.06523
0.0820155
1.3501
2.24972
1.06154
1.63635
0.498397
1.34108
1.81212
1.30808
1.93347
0.563015
1.71207
2.07909
1.17469
2.00358
1.93776
1.41714
0.975314
1.34287
1.37478
1.31718
0.202881
1.73895
1.15765
0.705056
1.11786
2.54898
0.553812
0.261414
3.59291
0.999279
0.386687
1.42942
0.637414
1.44851
1.35386
1.27412
0.654065
1.04941
0.967998
1.14734
1.03012
1.29576
0.52853
2.11685
1.05451
0.872875
0.805203
1.00947
0.356579
1.19134
0.995074
1.72114
1.84799
0.78548
0.977431
1.77968
1.40751
0.734431
2.07302
1.49994
0.623443
0.938499
0.00250223
2.04446
1.07237
0.926759
1.28474
1.23315
0.577881
0.746397
1.74427
1.15467
0.635618
1.42702
2.18508
1.3255
1.897
0.296122
1.37749
1.60428
2.33901
1.53531
1.71975
1.47135
0.96048
1.53062
1.31858
0.759436
2.23754
0.312737
1.16889
1.29743
1.36438
0.770108
1.36068
0.192273
1.41206
1.4332
1.46316
1.18911
1.61681
1.01036
1.40871
1.27568
1.22792
0.00250095
3.07699
0.556462
1.3992
1.92856
0.692636
1.20336
0.847618
1.86849
1.16472
1.01961
0.680701
1.06611
2.37075
1.18145
0.794583
1.0551
0.599541
1.08499
1.67015
1.89843
0.314762
1.06788
0.796829
1.83957
1.77408
0.406094
1.27185
0.57257
1.0643
1.1957
1.22468
1.63679
0.848769
2.02792
1.57451
0.583974
1.2243
0.404719
1.24595
1.87083
0.852062
0.727275
1.46738
1.5337
0.271372
1.44968
1.04937
1.11597
1.34341
1.41584
0.602477
2.41097
1.21642
1.91645
0.727966
0.787688
1.81298
1.62435
0.771418
0.63411
1.80962
2.31434
1.63847
0.837957
0.375284
1.3256
2.16166
1.68978
1.38304
1.24106
1.88069
1.03042
2.30403
1.08368
1.61494
1.62305
1.24738
1.5317
1.30337
1.03056
0.956555
1.99556
1.19439
0.644057
1.46671
1.61988
0.795173
1.10305
3.28922
3.3339
0

SCALARS edge_force float
LOOKUP_TABLE default
0.5
0.5
0.5
0.5
0.5
0.5
0.5
0.5
0.5
0.5
0.5
0.5
0.5
0.5
0.5
0.5
0.5
0.5
0.5
0.5
0.5
0.5
0.5
0.5
0.5
0.5
0.5
0.5
0.5
0.5
0.5
0.5
0.5
0.5
0.5
0.5
0.5
0.5
0.5
0.5
0.5
0.5
0.5
0.5
0.5
0.5
0.5
0.5
0.5
0.5
0.5
0.5
0.5
0.5
0.5
0.5
0.5
0.5
0.5
0.5
0.5
0.5
0.5
0.5
0.5
0.5
0.5
0.5
0.5
0.5
0.5
0.5
0.5
0.5
0.5
0.5
0.5
0.5
0.5
0.5
0.5
0.5
0.5
0.5
0.5
0.5
0.5
0.5
0.5
0.5
0.5
0.5
0.5
0.5
0.5
0.5
0.5
0.5
0.5
0.5
0.5
0.5
0.5
0.5
0.5
0.5
0.5
0.5
0.5
0.5
0.5
0.5
0.5
0.5
0.5
0.5
0.5
0.5
0.5
0.5
0.5
0.5
0.5
0.5
0.5
0.5
0.5
0.5
0.5
0.5
0.5
0.5
0.5
2
0.5
2
0.5
2
0.5
0.5
2
0.5
2
0.5
2
0.5
0.5
2
0.5
2
0.5
2
0.5
0.5
2
0.5
2
0.5
2
0.5
0.5
2
0.5
2
0.5
2
0.5
0.5
2
0.5
2
0.5
2
0.5
2
2
2
2
2
2
2
0.5
0.5
2
0.5
0.5
0.5
0.5
0.5
0.5
0.5
0.5
0.5
0.5
0.5
0.5
0.5
0.5
0.5
0.5
0.5
0.5
0.5
0.5
0.5
0.5
0.5
0.5
0.5
0.5
0.5
0.5
0.5
0.5
0.5
0.5
0.5
0.5
0.5
0.5
0.5
0.5
0.5
0.5
0.5
0.5
0.5
0.5
0.5
0.5
0.5
0.5
0.5
0.5
0.5
2
0.5
0.5
2
0.5
0.5
0.5
0.5
0.5
0.5
0.5
0.5
0.5
0.5
0.5
0.5
0.5
0.5
2
0.5
0.5
0.5
0.5
2
0.5
0.5
0.5
0.5
0.5
0.5
0.5
0.5
0.5
2
0.5
2
0.5
0.5
0.5
2
0.5
0.5
0.5
0.5
0.5
2
0.5
2
0.5
0.5
2
0.5
0.5
0.5
0.5
0.5
2
0.5
0.5
0.5
0.5
0.5
0.5
0.5
0.5
0.5
0.5
0.5
0.5
0.5
0.5
2
0.5
0.5
0.5
0.5
0.5
0.5
0.5
0.5
0.5
0.5
0.5
0.5
0.5
0.5
0.5
0.5
0.5
0.5
2
0.5
0.5
2
0.5
2
0.5
0.5
2
0.5
0.5
0.5
0.5
0.5
0.5
0.5
0.5
0.5
0.5
0.5
0.5
0.5
0.5
0.5
0.5
0.5
2
0.5
0.5
0.5
0.5
0.5
0.5
0.5
0.5
0.5
0.5
0.5
2
0.5
0.5
0.5
0.5
0.5
0.5
0.5
0.5
0.5
2
0.5
0.5
0.5
0.5
0.5
0.5
0.5
0.5
2
0.5
0.5
0.5
0.5
0.5
0.5
0.5
2
0.5
0.5
0.5
2
0.5
0.5
0.5
0.5
0.5
0.5
0.5
0.5
0.5
0.5
0.5
0.5
0.5
2
0.5
0.5
0.5
0.5
0.5
0.5
0.5
0.5
2
0.5
0.5
0.5
0.5
0.5
0.5
0.5
0.5
0.5
0.5
0.5
0.5
2
0.5
0.5
0.5
0.5
0.5
0.5
0.5
2
0.5
0.5
0.5
0.5
0.5
0.5
0.5
0.5
0.5
0.5
0.5
0.5
2
0.5
0.5
0.5
0.5
0.5
0.5
0.5
0.5
0.5
0.5
0.5
0.5
0.5
0.5
0.5
0.5
0.5
0.5
0.5
0.5
0.5
0.5
2
0.5
0.5
2
0.5
0.5
0.5
0.5
0.5
2
0.5
0.5
0.5
0.5
0.5
0.5
0.5
0.5
0.5
0.5
0.5
0.5
0.5
0.5
0.5
0.5
0.5
0.5
0.5
0.5
0.5
0.5
0.5
2
0.5
0.5
0.5
0.5
0.5
0.5
0.5
0.5
0.5
0.5
0.5
2
0.5
0.5
2
0.5
0.5
0.5
0.5
0.5
0.5
0.5
0.5
0.5
0.5
0.5
0.5
2
0.5
2
0.5
0.5
0.5
0.5
0.5
0.5
0.5
0.5
0.5
0.5
0.5
0.5
0.5
0.5
0.5
0.5
0.5
0.5
0.5
0.5
0.5
0.5
0.5
0.5
2
0.5
0.5
0.5
0.5
2
0.5
0.5
0.5
0.5
0.5
0.5
0.5
0.5
0.5
0.5
0.5
0.5
0.5
0.5
0.5
0.5
0.5
2
0.5
0.5
0.5
0.5
0.5
2
0.5
0.5
0.5
0.5
0.5
2
0.5
0.5
0.5
0.5
0.5
0.5
0.5
0.5
0.5
0.5
0.5
0.5
0.5
0.5
0.5
0.5
0.5
2
0.5
0.5
0.5
0.5
0.5
0.5
0.5
0.5
0.5
0.5
0.5
2
0.5
0.5
0.5
0.5
0.5
0.5
0.5
0.5
0.5
0.5
0.5
0.5
2
0.5
0.5
0.5
0.5
0.5
0.5
0.5
2
0.5
0.5
0.5
0.5
0.5
0.5
0.5
0.5
0.5
0.5
0.5
0.5
0.5
0.5
0.5
0.5
0.5
2
0.5
0.5
0.5
0.5
0.5
0.5
2
0.5
0.5
0.5
0.5
0.5
0.5
0.5
0.5
0.5
0.5
0.5
0.5
0.5
2
0.5
0.5
0.5
0.5
0.5
0.5
0.5
0.5
0.5
0.5
0.5
0.5
0.5
0.5
0.5
0.5
0.5
0
0
0
