# vtk DataFile Version 2.0
2D-vertex
ASCII
DATASET UNSTRUCTURED_GRID
POINTS 996 float
0.68066 -4.15129 0
3.12932 -3.91864 0
3.50836 -2.96622 0
2.47197 -1.9088 0
0.202626 -1.78512 0
-0.501513 -3.28067 0
4.03707 -2.92672 0
4.60177 -2.066 0
3.65382 -0.561382 0
2.61028 -0.886484 0
1.42392 0.360747 0
-0.268677 0.820389 0
-1.02068 -0.462241 0
-1.17648 -0.502327 0
-1.67825 -2.17587 0
-1.1604 -3.05503 0
5.1743 -2.21663 0
5.97724 -1.32621 0
4.12566 0.189389 0
3.85642 0.119675 0
2.96953 1.06916 0
1.90524 0.970954 0
1.21527 4.59336 0
0.364253 4.56017 0
-0.439291 2.67283 0
-1.63944 1.74728 0
-1.53713 -0.156882 0
-2.82633 -0.460208 0
-3.32901 -1.49765 0
-3.02073 -2.20522 0
7.04522 -1.30172 0
7.6589 -0.568753 0
7.46517 0.741119 0
5.23629 1.88485 0
5.69784 2.47057 0
3.33694 3.77859 0
2.5574 5.05933 0
1.67284 5.20687 0
0.720943 8.39288 0
-0.86253 8.41964 0
-0.516803 5.3616 0
-2.00572 4.40343 0
-3.04349 2.84339 0
-4.00006 2.86792 0
-4.72475 1.44949 0
-6.13149 1.12779 0
-6.40779 0.061176 0
-4.8791 -1.27876 0
7.88005 1.37577 0
7.52362 2.41046 0
6.76645 2.82058 0
5.99907 4.8752 0
3.63744 6.03864 0
3.55514 6.91478 0
2.09138 8.52481 0
2.61942 9.23625 0
-1.83866 9.79152 0
-1.73095 8.86772 0
-2.96287 7.51054 0
-2.61399 5.35908 0
-4.24688 5.64924 0
-5.61934 4.31696 0
-7.52394 2.8066 0
-7.37578 2.27345 0
8.43298 2.83503 0
8.43292 2.83753 0
6.91228 4.86734 0
7.327 6.07713 0
6.03429 7.33315 0
6.23318 8.02101 0
5.4178 9.032 0
5.13226 9.55094 0
-2.56833 12.0919 0
-2.83018 11.7391 0
-5.97865 8.77384 0
-5.30361 7.99806 0
-6.01649 6.61091 0
-5.93285 6.44937 0
-8.51286 3.30669 0
-8.35877 2.95388 0
9.95797 3.1724 0
10.2571 4.13472 0
9.43662 5.10351 0
10.593 5.5507 0
10.2557 7.07113 0
10.4288 7.78559 0
9.52039 12.4076 0
10.4835 14.5021 0
-9.5607 13.7617 0
-9.56046 13.7592 0
-9.94853 7.88769 0
-9.65205 7.37121 0
-9.98988 6.73243 0
-9.23901 5.6455 0
-10.0415 4.3804 0
-9.57062 3.40277 0
4.08122 -5.75642 0
5.27507 -5.18164 0
6.10387 -4.75653 0
8.41886 -3.1054 0
9.67594 -1.63691 0
10.9487 0.734479 0
11.0388 0.909716 0
11.7113 2.00327 0
12.4426 3.95441 0
12.6302 4.74893 0
12.7024 8.2777 0
13.0683 14.9894 0
-13.1616 14.187 0
-12.5448 7.8257 0
-12.4497 6.54671 0
-12.051 4.00433 0
-11.154 2.07368 0
-10.278 0.984637 0
-9.66089 0.269922 0
-8.72939 -1.04235 0
-6.75764 -3.14336 0
-4.6532 -4.50214 0
-2.52971 -5.45139 0
0.491313 -6.20067 0
12.52 9.75781 0
8.42446 9.8559 0
-12.8342 10.2887 0
-9.93362 11.1441 0
-0.181811 2.33792 0
1.10963 2.45985 0
-1.75409 4.37626 0
-0.970664 2.65584 0
4.58891 4.00356 0
4.97378 4.93368 0
0.397014 10.0019 0
0.189851 8.87833 0
-1.04551 6.70855 0
-2.22347 6.39582 0
5.99805 4.87748 0
5.11957 6.83952 0
4.13421 7.32206 0
4.11797 8.69333 0
2.07481 10.2648 0
2.07285 10.2632 0
-2.31791 10.0021 0
-3.87281 8.19873 0
-3.42188 7.5183 0
-4.37895 6.23414 0
1.55581 -0.28002 0
0.126542 -1.30528 0
6.63714 0.96789 0
5.57888 -0.595487 0
5.23424 1.88628 0
3.19701 2.65639 0
-8.82427 9.53879 0
-5.79971 9.47352 0
3.19451 2.65641 0
1.75235 3.30505 0
-9.25211 5.58362 0
-7.8363 4.99081 0
-0.532472 -3.29726 0
-0.890002 -5.98961 0
14.9342 30.6492 0
17.6294 30.5219 0
1.48548 -3.79058 0
1.56368 -2.33403 0
2.54996 7.27722 0
1.39433 6.23405 0
8.25806 9.37862 0
5.41795 9.03451 0
8.57911 20.1595 0
-0.0908012 11.9593 0
-2.4567 -2.45144 0
-3.10865 -5.2213 0
-4.13984 0.538614 0
-5.01283 -0.658303 0
-5.30812 -4.13415 0
-4.28268 -1.66374 0
0.464328 6.68832 0
-0.438928 6.24253 0
9.40946 4.9595 0
7.84005 4.13092 0
5.80385 -1.86298 0
7.56878 -3.81721 0
2.0476 -6.23631 0
2.03845 -4.21035 0
-5.96364 -0.553481 0
-7.52591 -2.46169 0
-5.2039 3.22434 0
-6.51297 1.95956 0
7.72704 0.878967 0
10.228 -0.738672 0
-12.314 5.3926 0
-9.26349 5.60435 0
12.8567 6.80018 0
10.7686 6.56575 0
-2.60314 1.91218 0
-3.49189 0.538671 0
-9.22937 -0.294679 0
-6.49194 1.39046 0
-3.4389 5.15409 0
-4.16903 3.15858 0
-6.67329 5.19075 0
-6.2431 4.39834 0
8.2905 6.26584 0
8.48546 6.75269 0
-0.887955 11.7897 0
-0.639427 10.6572 0
12.5244 9.76691 0
9.83551 11.0056 0
9.66667 13.2889 0
1.7489 10.8434 0
7.84784 8.01328 0
9.04285 8.74516 0
-7.16058 6.69744 0
-7.50752 7.44544 0
-2.34312 14.0937 0
0.629824 13.2842 0
-9.8717 11.6396 0
-4.03986 11.5625 0
9.04145 8.74725 0
12.5496 9.30408 0
-10.6632 12.7835 0
-13.2148 13.2081 0
-12.6032 8.80539 0
-9.08659 9.09381 0
12.4716 17.7266 0
9.87906 15.9831 0
8.0888 10.2951 0
5.95663 10.4442 0
-9.08664 9.09129 0
-7.20223 8.4196 0
2.06344 13.8264 0
3.82963 12.194 0
-4.32117 9.96137 0
-3.55384 9.32077 0
4.54191 11.95 0
3.6654 10.388 0
12.8356 11.4566 0
10.0313 11.5462 0
-2.95488 13.6599 0
-4.48118 12.5225 0
-13.593 25.9076 0
-0.105657 14.9045 0
-6.39101 10.0119 0
-4.34448 11.7667 0
-12.6855 9.52159 0
-9.27968 10.1286 0
5.56448 16.0463 0
7.78915 14.1021 0
-1.25997 13.6602 0
-0.720867 11.9937 0
-10.2762 17.0281 0
-13.4774 16.0103 0
17.0942 36.6022 0
1.97185 14.9324 0
-3.03528 16.3537 0
-10.2189 17.4262 0
-10.6175 12.1147 0
-13.0668 11.3199 0
-6.48963 13.8045 0
-5.92389 12.716 0
-6.26996 10.7666 0
-7.07591 11.6887 0
13.0403 13.1592 0
10.4434 13.8602 0
-11.1173 18.5188 0
-14.0966 18.4374 0
5.72898 11.5492 0
4.55097 11.9174 0
9.82394 15.1665 0
7.83564 14.674 0
3.63767 13.3542 0
6.22975 15.4008 0
-2.17052 15.5883 0
-0.693467 15.9126 0
13.8219 19.99 0
11.0848 21.1303 0
0.0144709 14.8812 0
0.930614 15.5915 0
11.8323 22.8663 0
3.56446 15.5008 0
12.9201 12.2914 0
9.80554 12.7775 0
-8.33563 13.2768 0
-8.35543 12.4068 0
-9.17762 10.4714 0
-7.07746 11.31 0
-9.86047 16.6479 0
-6.09609 15.6271 0
17.0507 41.8312 0
18.5918 42.8176 0
1.47245 13.1884 0
2.2953 11.6516 0
-3.93729 15.304 0
-3.81345 14.0725 0
-13.2942 15.2563 0
-10.0543 15.9731 0
-0.456546 17.4789 0
-0.518604 17.4348 0
7.3735 12.4557 0
6.93467 13.3668 0
8.31929 10.8059 0
7.24538 12.1828 0
-11.0558 17.9485 0
-13.7229 16.812 0
-2.74776 16.3556 0
-1.78577 17.8173 0
1.22088 16.7387 0
2.80973 16.7407 0
5.90296 13.523 0
5.60835 14.1467 0
-7.35784 16.9406 0
-7.1305 17.4103 0
-8.993 14.53 0
-6.30213 14.7739 0
3.54686 15.4564 0
4.34283 14.2123 0
-10.5222 20.4838 0
-3.90123 17.6 0
14.3347 20.9927 0
11.9735 22.0344 0
-16.552 24.9874 0
-14.1095 25.1143 0
7.9581 16.468 0
7.12852 15.5009 0
12.4603 17.9111 0
8.69099 19.3037 0
3.54626 18.0558 0
5.31484 18.7004 0
0.847214 19.4395 0
2.93289 18.5072 0
-1.09145 25.4501 0
-3.70825 24.0247 0
-3.26877 22.3539 0
-4.50218 19.5073 0
-6.11078 14.515 0
-4.00613 13.9561 0
-9.70519 19.4086 0
-8.15414 18.3577 0
7.32178 23.3458 0
6.63613 20.5012 0
-13.1748 14.5339 0
-9.33566 15.0281 0
-9.29071 15.1465 0
-7.09854 16.174 0
-0.453253 19.6746 0
-0.211067 19.3651 0
14.5628 29.8782 0
1.91335 22.8983 0
16.883 26.5191 0
14.7652 26.9248 0
-15.0857 20.3835 0
-12.3284 21.129 0
-5.30331 15.9954 0
-5.1446 17.2671 0
7.41168 17.3122 0
6.27185 17.2964 0
0.973265 17.1357 0
1.56938 18.2136 0
10.0481 15.6356 0
12.9416 15.969 0
12.4452 17.8289 0
7.95694 16.7897 0
-11.9588 22.1131 0
-4.48508 19.8737 0
-2.30081 18.8309 0
-3.54528 18.6826 0
3.35942 23.2528 0
3.9639 22.573 0
-5.73414 17.7694 0
-5.62627 18.9252 0
3.55897 17.501 0
5.57968 16.5978 0
-2.03812 22.2387 0
-0.474428 23.6378 0
1.91422 28.5156 0
12.1857 29.984 0
-14.2183 43.6086 0
-15.4565 44.1797 0
-7.0437 49.228 0
-2.70256 24.9441 0
-14.2701 18.7615 0
-12.086 20.714 0
-1.88712 19.5743 0
-3.55226 20.5381 0
-7.39189 20.4985 0
-5.89958 20.8465 0
12.9322 25.9511 0
11.6287 28.9564 0
4.50786 20.8903 0
6.11189 21.204 0
11.0517 21.2495 0
8.0897 22.1799 0
12.8327 18.5067 0
10.8172 20.7976 0
-13.659 24.2586 0
-3.83899 21.757 0
16.0996 24.6493 0
14.3121 26.046 0
1.95201 20.4928 0
3.12583 19.723 0
-15.7668 21.9002 0
-13.662 23.1609 0
-1.97489 27.0594 0
3.78042 24.4595 0
0.0884674 21.0892 0
1.58688 21.4809 0
-8.14656 18.4792 0
-6.83896 19.4456 0
7.73332 18.4722 0
6.23201 19.3122 0
-1.56475 21.4577 0
-2.27418 20.2936 0
12.4423 17.8392 0
7.86313 18.0811 0
-2.7718 24.5894 0
-1.51891 23.4026 0
-5.82851 21.457 0
-4.85492 22.0845 0
-4.65481 24.2284 0
-5.24403 23.4354 0
-14.1025 18.4455 0
-10.443 20.1038 0
5.1168 24.5024 0
5.70944 23.3503 0
-0.371611 29.6769 0
7.04436 50.1829 0
-8.19514 21.4297 0
-7.9075 22.5322 0
3.28369 51.7874 0
3.1455 53.3582 0
-10.3714 27.587 0
-8.25438 29.9013 0
9.19774 20.5983 0
7.96174 21.8524 0
14.818 21.9485 0
12.2852 23.2069 0
5.41507 22.7788 0
6.27537 21.6034 0
1.99812 21.1415 0
3.7 21.7127 0
3.17524 25.0753 0
5.13533 28.5995 0
4.31271 20.1414 0
5.41837 19.0727 0
1.48634 23.3143 0
1.76943 24.5899 0
12.5613 18.1243 0
9.1747 20.4702 0
-6.87847 35.8277 0
-4.82372 31.6357 0
-14.1433 27.4806 0
-16.8131 27.1432 0
-0.318418 21.5756 0
0.160784 22.9702 0
-7.31683 22.706 0
-7.01185 23.5002 0
-9.70663 19.7783 0
-7.39184 20.496 0
8.61791 25.6503 0
9.55597 23.8444 0
-16.3604 23.7109 0
-13.9047 23.9067 0
-7.45568 24.2381 0
-7.47105 25.8163 0
4.56483 32.6875 0
8.58156 31.25 0
-14.4324 29.4322 0
-10.0942 28.5772 0
8.47916 26.1581 0
5.60825 27.4831 0
2.30057 28.163 0
1.23971 26.3689 0
-4.91755 25.9883 0
-4.79179 26.0687 0
17.5358 40.4939 0
19.3209 40.6931 0
-0.214875 24.6624 0
1.11868 25.1333 0
-9.51627 23.3494 0
-9.66324 23.7765 0
5.87863 37.426 0
7.02161 44.26 0
-3.38532 25.7705 0
-2.84651 26.9166 0
14.532 27.3773 0
12.2616 27.7267 0
-11.6966 46.3261 0
-12.8889 47.651 0
-13.3525 44.1947 0
-8.04848 34.9839 0
9.80871 23.2896 0
9.35923 22.3686 0
-10.7232 25.753 0
-9.15048 24.3998 0
12.6672 25.4574 0
10.2564 25.2102 0
-1.99814 37.1817 0
-0.658392 31.2569 0
-9.83358 21.3238 0
-10.3415 22.3042 0
17.2112 27.9879 0
15.0835 28.2323 0
15.2522 22.7531 0
12.9717 24.259 0
16.4331 34.3564 0
12.9644 33.8433 0
-1.93317 29.6556 0
-1.57303 28.0218 0
-15.3391 34.9137 0
-17.2704 34.6069 0
3.27793 26.0447 0
2.11003 26.8017 0
7.8239 30.2885 0
7.04147 27.2384 0
5.69397 25.1068 0
4.72473 26.1313 0
-6.25188 29.0611 0
-5.66474 29.7251 0
7.80746 24.0671 0
7.61636 24.5652 0
5.91856 30.2433 0
6.23429 32.7978 0
-14.0814 27.6339 0
-11.0192 27.4055 0
17.5376 36.1158 0
19.5802 36.2317 0
-8.972 26.7572 0
-6.11205 28.4125 0
-13.7149 37.202 0
-10.427 33.5266 0
3.22962 32.0653 0
2.70944 32.407 0
-16.6835 26.1234 0
-13.8148 26.31 0
-16.9734 28.5208 0
-14.85 28.6778 0
-0.318592 40.8163 0
3.97018 43.7092 0
[...]
CELL_DATA 499
SCALARS cell_division_count float
LOOKUP_TABLE default
1
0
1
0
0
0
1
0
0
1
1
1
1
1
1
1
0
1
1
1
1
1
1
0
1
1
1
1
1
1
1
1
2
4
3
1
1
0
0
1
1
0
0
0
1
2
3
0
1
0
0
1
1
1
1
1
0
0
3
0
1
2
3
1
1
1
1
1
1
1
2
2
1
1
1
1
2
1
1
1
3
1
1
2
9
1
1
1
1
1
1
1
1
1
1
1
1
1
1
1
1
1
2
3
5
2
1
3
5
2
2
2
5
3
2
4
2
3
5
5
6
3
3
6
3
4
6
9
3
5
4
4
8
5
6
6
5
4
5
14
5
5
5
7
5
4
6
4
10
5
3
4
6
6
6
7
6
6
11
7
8
7
6
7
8
18
11
6
8
9
4
7
8
13
6
7
7
8
8
3
6
12
10
11
9
7
11
13
9
15
8
11
10
11
9
9
5
14
6
10
8
13
10
10
8
11
6
10
11
14
8
11
13
11
9
12
9
8
9
11
13
9
11
6
16
13
11
12
11
13
8
13
13
12
15
14
10
8
12
13
14
11
12
12
16
9
14
15
15
12
7
9
14
15
11
14
14
14
13
13
12
12
8
12
16
14
8
9
17
14
15
16
14
14
13
11
14
14
14
14
14
15
14
8
15
9
9
14
13
13
14
12
12
10
12
12
14
15
7
13
13
15
11
14
14
14
8
13
15
12
16
15
15
15
13
14
15
16
12
15
17
9
11
14
16
14
15
16
14
15
11
7
11
13
17
14
15
13
16
16
13
16
15
12
15
14
17
13
10
9
14
17
13
15
14
15
10
17
15
15
15
15
14
13
13
15
14
17
16
15
16
15
15
15
17
8
16
15
15
16
13
14
10
17
16
15
11
16
16
14
16
16
15
9
16
15
14
13
18
15
16
14
11
15
18
18
14
17
8
10
11
14
15
12
16
15
15
16
17
15
16
15
15
16
16
17
15
15
15
17
17
16
18
16
16
16
15
17
14
16
18
11
11
12
13
16
16
17
17
17
16
14
17
15
17
15
17
15
17
15
17
12
11
16
17
16
18
11
16
18
15
16
15
15
17
16
17
13
18
17
16
17
17
18
18
12
13
15
16
15
16
16
18
16
16
15
17
16
16
SCALARS cell_time float
LOOKUP_TABLE default
2361
2.22229e+13
2381
4.48239e+13
2.67348e+11
1.25633e+10
2391
2.68224e+09
9.19769e+11
2381
2381
2371
2341
2391
2311
2351
1.22837e+06
2391
2361
2391
2391
2291
2331
26173.4
2391
2391
2391
2391
2391
2281
2341
2281
2241
1981
2131
2231
2371
1.00108e+18
2.94533e+15
2341
2331
107473
3735.76
2447.34
2321
2221
2021
2438.01
2331
5089.01
2706.18
2311
2351
2361
2371
2341
1.12104e+13
23556.3
1811
4427.96
2341
2261
2081
2391
2391
2391
2391
2391
2391
2391
2271
2151
2391
2381
2381
2381
2211
2371
2371
2371
1511
2361
2361
2221
1141
2361
2351
2351
2341
2341
2341
2341
2341
2331
2331
2331
2321
2311
2311
2291
2281
2281
2271
2141
1961
2241
2231
2081
1861
2221
2221
2221
1511
1801
2211
1831
2151
2141
1871
1831
1721
2101
2081
1711
2081
1801
1811
1501
2021
1871
2001
2001
781
1811
1701
1731
1931
1711
1901
731
1871
1871
1861
1561
991
1831
1601
1581
1231
1811
1801
1801
1801
1791
1731
1531
1721
1711
1071
1141
1061
1521
1111
1451
1521
51
1201
1601
1591
1141
1581
1561
1561
411
921
1391
1531
1251
1521
1511
1241
931
1381
1141
1461
1451
1081
871
561
71
1201
1251
1371
961
1141
941
1341
731
1321
1321
721
741
1291
1261
1251
1251
1241
1231
1211
751
1201
1191
471
1181
401
631
1141
921
1141
1141
861
1141
1131
1111
291
291
1081
1081
1071
851
1061
611
601
571
571
771
1001
221
981
971
141
971
591
21
151
941
731
581
51
931
621
711
291
611
131
611
611
611
681
851
671
671
301
631
251
351
781
781
71
771
201
31
751
551
741
61
741
731
731
81
731
251
731
721
591
531
711
591
591
681
231
671
661
651
631
631
251
481
621
621
611
611
221
611
611
611
421
601
331
591
51
181
591
331
591
411
581
301
571
571
41
561
561
391
61
551
71
141
381
51
131
521
281
511
101
491
481
471
281
11
461
231
451
441
261
441
81
421
421
261
421
101
411
211
411
151
241
61
221
391
51
241
381
111
21
1
351
51
211
331
61
331
201
331
1
301
301
301
301
291
291
291
291
71
171
21
281
281
1
271
11
21
261
261
251
251
251
41
61
21
51
241
61
241
41
11
231
81
221
221
221
221
221
71
91
211
81
211
81
201
201
201
191
61
191
31
111
181
181
31
41
171
31
11
151
151
151
151
141
141
31
131
131
131
111
11
1
101
101
91
91
81
81
81
81
81
81
71
71
71
71
71
61
61
61
61
61
61
61
51
51
51
51
51
51
51
41
41
41
41
31
31
31
31
31
21
21
21
21
21
11
11
11
11
11
1
1
1
1
SCALARS cell_area float
LOOKUP_TABLE default
3.24158
3.29966
3.293
3.35563
3.35095
3.34321
3.32626
3.374
3.34827
3.28129
3.33619
3.28178
3.38601
3.31874
3.30543
3.32943
3.39799
3.28841
3.34594
3.3972
3.39158
3.33895
3.3387
3.37133
3.35784
3.37543
3.43945
3.4017
3.39077
3.32878
3.24634
3.29633
3.35052
3.33627
3.44467
3.24899
3.34444
3.25232
3.26078
3.24827
3.23636
3.27745
3.26127
3.27788
3.21933
3.28359
3.25487
3.26221
3.25834
3.24751
3.26725
3.27285
3.21609
3.2568
3.24445
3.24188
3.20923
3.21649
3.26591
3.19541
3.24579
3.30555
3.26778
3.2799
3.33672
3.28434
3.39843
3.35122
3.2793
3.35622
3.45173
3.35108
3.35639
3.28636
3.248
3.27426
3.34093
3.35084
3.23059
3.22176
3.2189
3.25824
3.33467
3.33061
3.36937
3.22226
3.29613
3.2519
3.3695
3.28688
3.22418
3.20344
3.21551
3.30327
3.25107
3.24384
3.25801
3.32354
3.26259
3.29966
3.28903
3.2627
3.40125
3.23129
3.29303
3.2395
3.32779
3.38465
3.29056
3.27823
3.25734
3.27103
3.27323
3.29256
3.24477
3.31585
3.35597
3.40461
3.25407
3.4249
3.30194
3.34858
3.27054
3.3476
3.40605
3.26013
3.44173
3.39688
3.21484
3.27942
3.33427
3.20597
3.28475
3.3702
3.31461
3.35398
3.36592
3.26279
3.3652
3.30761
3.24853
3.2805
3.31486
3.27336
3.23863
3.34786
3.40024
3.26831
3.37489
3.31329
3.29966
3.23184
3.37263
3.36087
3.3839
3.3869
3.33823
3.30835
3.35522
3.27346
3.25829
3.41131
3.28688
3.31975
3.36891
3.34027
3.36813
3.32815
3.29914
3.365
3.27023
3.3251
3.43187
3.29109
3.2763
3.23
3.36129
3.36882
3.39159
3.23848
3.29754
3.31034
3.43575
3.38961
3.39052
3.31709
3.38572
3.40065
3.29391
3.27902
3.27533
3.41076
3.40315
3.28845
3.35652
3.27091
3.23577
3.29101
3.24078
3.34298
3.25999
3.3378
3.4202
3.35312
3.30218
3.39114
3.28865
3.34778
3.38481
3.36596
3.30864
3.39248
3.3895
3.35496
3.25689
3.31524
3.34353
3.27689
3.37313
3.37098
3.44444
3.3522
3.40037
3.27883
3.36981
3.2902
3.39831
3.32883
3.30476
3.36931
3.21926
3.35796
3.42911
3.26335
3.34535
3.41042
3.42655
3.28484
3.38967
3.38502
3.28648
3.3693
3.26875
3.31401
3.257
3.33784
3.38228
3.29715
3.29665
3.317
3.29521
3.25014
3.32136
3.36899
3.30363
3.38947
3.3117
3.34849
3.40037
3.33879
3.33727
3.30621
3.23903
3.36155
3.35565
3.39398
3.2751
3.28374
3.34431
3.36545
3.34866
3.3185
3.37675
3.38183
3.37832
3.30157
3.34241
3.33899
3.3563
3.30308
3.26378
3.33682
3.36213
3.26338
3.37715
3.25809
3.30065
3.29097
3.34152
3.34301
3.34977
3.30801
3.36079
3.28738
3.38267
3.35215
3.36446
3.38614
3.31348
3.38401
3.33104
3.37422
3.33771
3.34423
3.34243
3.32447
3.26287
3.39263
3.36881
3.30862
3.32747
3.30743
3.31011
3.33148
3.38574
3.29632
3.39906
3.36469
3.35241
3.34535
3.31139
3.28552
3.2925
3.33354
3.31748
3.34446
3.31843
3.31878
3.37008
3.29452
3.31668
3.28432
3.25058
3.3237
3.35322
3.36561
3.34175
3.28599
3.36516
3.29778
3.31773
3.27201
3.27888
3.29951
3.30126
3.33979
3.31835
3.3274
3.24376
3.34235
3.41065
3.29915
3.32749
3.33099
3.30196
3.34409
3.3018
3.34121
3.33061
3.33516
3.27206
3.29874
3.35648
3.31283
3.29583
3.34836
3.32133
3.35648
3.35926
3.32768
3.33826
3.31422
3.3734
3.33107
3.34887
3.28038
3.36197
3.27982
3.36028
3.34843
3.30742
3.30089
3.30857
3.36025
3.31775
3.31074
3.28712
3.35177
3.36973
3.2881
3.29503
3.31048
3.30888
3.31736
3.27835
3.35563
3.29985
3.31128
3.36972
3.29874
3.31599
3.30792
3.31944
3.35655
3.37846
3.32135
3.3272
3.27787
3.2934
3.3078
3.30392
3.3325
3.34606
3.30591
3.36798
3.29478
3.3111
3.32559
3.32657
3.33211
3.29492
3.33985
3.32844
3.38508
3.34762
3.31427
3.32058
3.33027
3.32685
3.32733
3.31373
3.33209
3.31776
3.31749
3.32801
3.33098
3.30304
3.28623
3.30481
3.31882
3.31344
3.29754
3.24229
3.31565
3.30656
3.26405
3.35191
3.40592
3.31579
3.33278
3.33604
3.31765
3.29257
3.3404
3.32677
3.29995
3.2965
3.32063
3.33222
3.30783
3.32815
3.28883
3.31042
3.32481
3.32118
3.34682
3.36187
3.33877
3.28421
3.39329
3.27746
3.34317
3.30429
3.34059
3.30957
3.30997
3.28806
3.30182
3.27321
3.28216
3.31968
3.27917
3.32644
3.28955
3.3044
3.34917
3.31634
3.31087
3.277
3.25055
3.34279
3.34292
3.34705
3.24929
3.31209
3
3.26221
3.35563
354
SCALARS cell_perimeter float
LOOKUP_TABLE default
6.92936
6.94322
6.96334
7.19903
7.12907
6.81946
7.08018
7.65627
6.9368
6.92698
7.39027
7.00319
6.79896
7.24604
7.04529
6.79512
7.17687
6.96988
6.92432
6.98427
6.94352
7.27448
7.24481
7.58454
7.59828
6.9569
7.97991
7.13958
6.90341
7.07207
6.94936
7.05204
8.18688
7.03406
7.09957
7.34352
7.90552
7.52235
7.82999
7.64151
8.27327
8.66987
8.19491
7.7676
7.3843
9.61509
8.03976
7.6645
8.05572
7.66181
8.13418
8.45183
7.78725
8.07466
7.67474
7.21699
7.43861
7.39167
8.71884
7.32565
7.73134
9.70982
8.63453
7.03642
7.15311
7.24332
6.90301
7.08738
7.18475
6.86604
7.79474
7.06993
7.17292
7.07756
7.24061
7.21874
7.79415
7.27194
6.93613
7.87478
8.24261
6.79069
7.02159
7.86216
7.54863
7.98269
6.82375
7.98377
7.08435
6.99884
7.8002
7.31433
7.65591
7.1328
7.93532
7.97795
7.36825
6.94622
8.23232
7.19117
7.17246
6.9455
7.11955
8.05939
7.21186
7.03346
6.85457
7.4219
7.31808
8.60421
8.66795
8.58971
10.1398
7.21568
7.24313
7.0598
6.91838
7.4164
8.26557
7.07661
7.66703
7.28299
8.97046
7.19149
7.25416
8.48544
7.17847
7.08483
7.72614
7.02765
7.28907
7.79365
7.99132
7.3479
7.29817
7.0767
7.04762
8.00649
6.93058
7.25969
8.21243
6.913
7.58069
7.57739
7.29471
7.22671
7.24531
9.17325
7.08201
7.32904
7.30083
8.12094
7.07813
7.16373
6.82621
6.845
8.02314
7.0008
7.57705
7.89038
7.5963
6.85746
9.90883
7.33334
7.08798
6.8512
6.98251
7.1754
7.43068
7.16407
9.40384
7.87387
7.11995
7.45667
7.32959
8.08196
7.00124
7.09768
7.06721
7.98678
10.8501
6.93143
6.99736
7.08134
6.89132
7.35707
6.90638
6.91514
7.15748
7.01091
9.27373
7.01826
7.39084
7.26688
6.9268
7.17581
8.22633
7.25655
7.44091
6.97869
8.28637
7.03263
7.22742
7.06474
7.08021
6.89145
10.3584
7.05738
6.95448
6.9537
9.85216
6.92888
7.00385
7.07485
7.38068
7.0232
7.60724
7.99462
7.04095
7.03441
7.01619
7.05764
7.02038
9.40194
7.30408
7.75675
7.07767
7.12682
7.42088
7.14395
7.60677
7.17081
7.01634
7.26295
7.19977
6.92618
6.98363
7.16549
6.91668
7.09319
6.833
6.94694
7.49209
7.31235
6.94406
6.94623
6.82921
7.13534
6.96932
7.02163
7.60002
7.99017
6.85102
7.06144
7.20504
7.25592
7.16919
7.43519
6.88928
7.16171
7.34153
7.56196
7.32642
7.1861
7.19328
6.92603
7.87021
7.66881
7.04178
7.14337
6.92901
7.07438
6.94992
7.58393
6.96615
7.25184
7.02181
7.30159
7.37532
6.83783
7.40023
6.85393
6.9681
8.44436
6.81103
7.31954
8.16142
7.34477
7.12126
7.06401
6.98219
7.62593
7.2736
7.38814
7.1169
6.93899
7.09544
7.15278
7.85335
7.01821
7.13608
6.94461
8.04152
7.18999
7.12405
7.13187
7.66531
7.01177
7.01702
7.69788
6.8471
7.36953
7.0276
6.81874
7.18173
7.04332
7.01489
7.03132
6.84603
7.17936
7.03413
7.1376
7.4462
7.01594
7.03598
7.18611
6.83747
6.94809
6.88504
6.95518
7.30512
7.27706
7.33231
7.01556
6.89122
6.96239
7.57424
7.32246
6.9167
6.94573
7.03021
7.06131
7.2254
8.01644
6.98532
7.13721
6.97434
6.84373
7.3464
8.82144
7.22107
7.20885
7.44977
7.04702
7.13329
6.8084
7.17221
6.77492
6.92764
6.90358
6.98148
6.92583
6.76847
7.09816
7.32651
6.96653
7.05533
7.12429
7.40189
6.99622
6.83383
7.07772
6.78191
6.93033
6.76334
7.40231
7.86564
6.97791
7.19144
7.02634
8.2391
6.83353
7.10878
6.9428
6.89676
6.90848
7.18483
6.97619
7.00213
6.96346
6.95196
6.92667
6.83581
8.31594
6.99114
6.92236
7.14032
7.45176
6.91808
6.93653
6.92668
6.87171
7.22741
6.92281
6.74521
7.07505
6.90533
7.077
7.26512
7.21476
7.82535
6.9578
7.00329
7.19628
7.53638
6.93841
6.88242
7.05034
6.97553
6.93414
7.10845
6.90266
6.92229
6.92935
7.19859
7.16835
6.86693
7.3721
7.09549
6.81291
7.14258
7.05448
7.31168
6.99506
7.10335
6.85504
6.86569
7.02025
6.81552
6.88271
7.03444
7.23019
7.32928
7.38975
7.19261
6.96328
6.92599
6.81631
7.03352
6.86087
6.8579
6.85844
6.93787
6.91585
7.03129
6.87909
6.9528
7.14629
7.27881
7.15875
6.82599
7.15545
7.32592
6.95125
6.86767
7.00094
6.83645
7.32488
7.26215
6.99835
6.93948
6.89333
7.05657
7.02102
6.96669
6.96887
6.93259
7.4318
7.12983
7.01482
6.97796
7.21502
6.86928
7.19089
6.95469
7.51424
7.51127
6.828
6.94628
6.91132
6.92703
7.09908
6.9355
7.2342
6.96357
17
3.27023
3.36025
261
SCALARS cell_frequency_modifier float
LOOKUP_TABLE default
1.90108e+18
1.65838e+16
1.64278e+17
1.62562e+15
4.36804e+14
9.6669e+13
1.93302e+12
1.5439e+13
7.21681e+14
3.51728e+16
1.70845e+13
1.19027e+15
4.38411e+10
1.03674e+12
1.87553e+14
3.87799e+14
6.19087e+12
3.59467e+13
3.31461e+10
5.30795e+08
4.2725e+10
5.87842e+11
6.42562e+12
5.00497e+11
3.27188e+10
2.42511e+09
3.34394e+08
8.82198e+08
1.78745e+10
1.22558e+11
1.16495e+14
3.14051e+11
1.40288e+09
1.90874e+08
1.1572e+07
2.95507e+12
4.75064e+10
9.88145e+18
3.28334e+18
5.87094e+17
9.74057e+15
2.16081e+15
8.39344e+14
3.69093e+13
8.47376e+12
1.36463e+11
1.6997e+10
1.6316e+12
7.79233e+12
6.48255e+14
1.63551e+15
4.49283e+15
8.80346e+17
4.74197e+18
10000
10000
2.32107e+17
2.33003e+14
1.30222e+08
1.91613e+14
2.20811e+17
1.24553e+09
4.98811e+10
3.09729e+15
2.25277e+12
1.20541e+14
4.10003e+08
5.15052e+09
7.65329e+12
3.40936e+09
6.94658e+07
1.81831e+08
7.80489e+09
2.74648e+16
9.09595e+15
3.73243e+14
9.74623e+08
5.06067e+11
6.22317e+13
1.5668e+19
1.13886e+08
2.27775e+18
8.85072e+09
6.52645e+08
8528.54
4.22328e+18
2.97883e+15
1.27107e+18
4.28381e+09
1.98227e+13
2.1941e+18
10000
8.96282e+16
8.17779e+12
3.12818e+16
2.68518e+13
1.57925e+12
1.80395e+13
1.51319e+16
3.13223e+12
1.03108e+14
5.84443e+12
7.05938e+07
2.49836e+10
8.09636e+08
1.0135e+12
7.89611e+09
6.16286e+06
1.46008e+10
3.54822e+11
1.66449e+09
3.67835e+11
6.41546e+07
2.21443e+10
6.5626e+11
3.95532e+07
9.77888e+08
5.04493e+07
7.32291e+09
1.10114e+06
1.5844e+06
1.74259e+08
1.35099e+11
1.73473e+06
9.72055e+06
5.93937e+07
350721
113099
5.57831e+09
3.60635e+09
6.56701e+07
9.273e+08
40625.9
1.88209e+07
2.87011e+06
9.98866e+06
1.78682e+06
2.03173e+06
3.08103e+06
6237.35
2.66214e+09
4.05996e+09
5.74015e+08
1.31033e+08
150.713
3.24394e+07
1.35575e+06
3.31649e+08
620.498
3.66867e+07
5.73699e+08
2.71741e+07
310703
731313
2.43947e+06
256691
6.00241e+06
1.37069e+07
12993
862129
183397
308077
9.25427e+06
331278
72126.5
0.857498
1859.94
1.29082e+07
1.19956e+06
2682.21
7.04115e+08
2.75009e+06
44610.6
5134.24
27543.6
3.91533e+06
389419
72743.2
120162
3.11739e+08
3.20418e+06
26653.1
19007.4
2873.01
64122.3
1.0991e+06
2238.13
242.784
100.273
103.736
6.08615e+06
8702.77
15133.1
36876.2
17125.4
770593
4.38404e+06
292799
63179.4
46404.8
846276
192.02
10361.4
80288.1
216649
4939.8
1.93543e+07
1883.39
6759.26
424.104
173100
1090.45
11.7834
6053.96
164.872
246.454
7998.48
413214
4182.73
9947.28
278.453
47287.4
772.512
6.09768e+06
3.22607
1078.66
2656.82
4603.19
176829
798.424
429181
860.335
24.978
13790.2
159.358
75.076
343.254
203.711
751.132
1138.1
167.499
234.803
17795.6
2.014
120.533
2590.79
507.795
5472.64
46.9902
9802.08
4922.68
231099
4.98315
17.5304
4.29764
89.5288
123.654
412.396
38.4203
894.476
25.7287
617.035
691.38
130.722
2.3613
4.75038
78594.2
20851.4
0.790816
49.2903
1.40914
0.999119
158.655
14.6378
261.662
4.06151
311.605
777.253
2154.94
3.20924
123199
6.61434
78.0949
1.56089e+06
24.7423
126.609
4477.52
7106.08
16.8906
193.305
9.25673
1119.68
36.8817
9560.43
42.1612
172.967
12.6033
9.05569
90.4422
17.165
553.811
27.5063
1.9861
142.558
96.7022
404.307
1873.22
30.4091
4.09144
171.321
1.16889
12.8408
101.52
34.8084
11.2903
147.133
62.3173
4.6167
62.6695
70.3734
1.45547
106.027
4933.59
5.40036
1.72052
31.3721
1.21047
1.20087
6.16896
218.868
1.26374
432.4
130.298
9.07313
0.563965
12.8501
11.019
4649.44
8.07704
12.3504
4.3652
187.051
3646.73
146.326
24.4397
14.1212
2.13372
6.35353
640.511
19.8487
3.91695
6.06977
24.8317
6.90748
48.4659
1.61549
4.75514
1.23724
4.72888
6.20575
130.605
33.3963
4.86593
2.17314
28.5504
0.518682
7.6246
0.446542
1.76196
12.4283
0.837875
111.377
1.1282
3.65334
1.02205
1120.91
9.27661
351.895
2.21814
5.76638
35.5451
26.2306
3.87093
0.425509
3.47383
1.69675
118.068
7.05884
0.382654
536.551
71.3265
3.3804
9.26924
28.0773
704.952
9.04244
89.1427
2.00979
0.366169
7.0074
1.2997
7.23936
1.32598
2.11565
0.355683
1.1354
12.1159
256.959
289.147
2.01039
11.5823
1.99278
4.08198
2.51579
0.523489
788.943
1.74773
3.33781
2.70426
3.30236
460.915
1.55765
0.861009
0.624988
1.85407
1.37626
0.953294
3.74445
1.84732
1.22797
1.32144
1.48196
1.03061
1.29417
1.13302
0.791934
7.50382
107.711
4.77205
1.49651
1.53941
11.7661
108.108
1.23762
3.24963
101.392
0.464731
0.471307
1.18582
0.708518
0.777827
1.06245
156.11
0.597844
2.86723
5.99446
40.8722
0.922513
1.50372
2.51634
0.764949
125.35
1.63417
1.78019
1.8817
0.857101
0.398918
0.84016
131.934
0.36317
302.913
1.0455
4.10301
0.65508
1.84727
1.84957
101.402
4.55121
122.507
101.648
1.04221
121.156
1.01797
105.567
2.6193
0.679965
1.14734
1.52338
312.493
106.62
1.14609
0.543654
0.577527
129.078
1.41081
1
1
1
1
SCALARS cell_area_modifier float
LOOKUP_TABLE default
100
5.07692
100
0.431373
0.459397
0.528
0.835443
0.352941
0.484108
100
0.636656
100
0.330551
0.985075
2.38554
0.725275
0.311811
100
0.503817
0.312796
0.319871
0.587537
0.598187
0.358047
0.413361
0.349206
0.289898
0.303216
0.321951
0.736059
100
15.2308
0.4637
0.632588
0.287373
100
0.514286
100
100
100
100
100
100
100
100
100
100
100
100
100
100
100
100
100
100
100
100
100
100
100
100
2.32941
100
100
0.628571
100
0.309859
0.455172
100
0.425806
0.286541
0.457275
0.422175
100
100
100
0.564103
0.461538
100
100
100
100
0.64918
0.709677
0.368715
100
22
100
0.367347
100
100
100
100
2.86957
100
100
100
0.88
100
4.82927
100
100
0.304147
100
100
100
0.764479
0.337308
100
100
100
100
100
100
100
1.1716
0.427646
0.30137
100
0.294205
3.35593
0.47482
100
0.493766
0.299546
100
0.289051
0.313788
100
100
0.653465
100
100
0.360656
1.24528
0.439024
0.382979
100
0.387476
2.04124
100
100
1.22981
100
100
0.486486
0.307932
100
0.350442
1.36552
5.35135
100
0.356757
0.403259
0.339623
0.328358
0.605505
1.85047
0.435165
100
100
0.295964
100
0.938389
0.374291
0.573913
0.378585
0.74717
6.3871
0.390533
100
0.849785
0.291605
100
100
100
0.401623
0.375712
0.318841
100
8.6087
1.60976
0.290749
0.325123
0.323002
1.10615
0.332773
0.305085
100
100
100
0.296852
0.30229
100
0.416842
100
100
100
100
0.536585
100
0.613003
0.295082
0.442953
3.14286
0.320908
100
0.488889
0.336163
0.381503
1.75221
0.317817
0.326194
0.437086
100
1.21472
0.525199
100
0.355476
0.359347
0.28821
0.446953
0.306977
100
0.363303
100
0.310832
0.730627
2.50633
0.370093
100
0.411642
0.292467
100
0.506394
0.298643
0.293333
100
0.324059
0.335025
100
0.371482
100
1.29412
100
0.609231
0.341969
10.4211
11.6471
1.11864
39.6
100
0.887892
0.372881
2.78873
0.327273
1.42446
0.477108
0.306028
0.591045
0.62069
2.22472
100
0.4
0.429501
0.314785
100
100
0.516971
0.385965
0.472554
0.994975
0.347979
0.343154
0.34555
3.73585
0.548476
0.584071
0.423983
2.95522
100
0.624606
0.39521
100
0.34676
100
4.21277
100
0.557746
0.533693
0.465882
1.88571
0.404908
100
0.340792
0.44898
0.393638
0.329451
1.32886
0.338462
0.694737
0.351687
0.616822
0.519685
0.545455
0.864629
100
0.3168
0.377143
1.78378
0.782609
2.08421
1.63636
0.685121
0.331658
18
0.308892
0.392079
0.444944
0.508997
1.44526
100
100
0.657807
1.08197
0.511628
1.00508
0.975369
0.361974
100
1.13143
100
100
0.872247
0.44098
0.384466
0.554622
100
0.388998
7.92
1.04762
100
100
5.65714
3.88235
0.580645
1.01538
0.788845
100
0.551532
0.297744
6
0.776471
0.699647
3.2459
0.522427
3.6
0.560907
0.714801
0.644951
100
7.33333
0.420382
1.38462
28.2857
0.481752
0.90411
0.418605
0.409938
0.770428
0.601824
1.27742
0.354204
0.689895
0.470309
100
0.396794
100
0.406571
0.479419
2.12903
4.04082
1.81651
0.408247
1.03665
1.53488
100
0.453089
0.364641
100
66
1.55906
1.72174
1.09392
100
0.43326
4.60465
1.46667
0.365989
6.82759
1.15789
1.92233
0.956522
0.415094
0.344348
0.895928
0.801619
100
100
2
2.71233
0.666667
0.501266
2.27586
0.380038
100
1.48872
0.842553
0.821577
0.675768
198
0.577259
0.741573
0.333895
0.491315
1.26115
0.929577
0.72
0.808163
0.795181
1.31126
0.680412
1.02591
1.07027
0.758621
0.704626
3.04615
100
2.44444
0.965854
1.34694
9.42857
100
1.2
2.17582
100
0.451025
0.300455
1.18563
0.662207
0.640777
1.05882
100
0.570605
0.814815
4.4
13.2
0.92093
0.671186
1.9604
0.752852
100
1.584
0.857143
0.912442
0.498741
0.39839
0.594595
100
0.315789
100
0.530831
2.64
0.567335
1.69231
1.66387
100
3.47368
100
100
0.947368
100
0.828452
100
2.57143
0.468085
1.14451
1.51145
100
100
0.542466
0.53951
0.496241
100
1.40426
1
1
1
1
SCALARS cell_Gaussian_modifier float
LOOKUP_TABLE default
1.90108e+16
3.26651e+15
1.64278e+15
3.76849e+15
9.50821e+14
1.83085e+14
2.31377e+12
4.37438e+13
1.49075e+15
3.51728e+14
2.68348e+13
1.19027e+13
1.32631e+11
1.05245e+12
7.86207e+13
5.34693e+14
1.98546e+13