# vtk DataFile Version 2.0
2D-vertex
ASCII
DATASET UNSTRUCTURED_GRID
POINTS 578 float
0.136035 -2.85817 0
2.59196 -2.74515 0
3.01757 -1.81292 0
2.03483 -0.705503 0
-0.23294 -0.472753 0
-1.00491 -1.93348 0
3.54908 -1.80007 0
4.15619 -0.970599 0
3.28967 0.577272 0
2.22251 0.303677 0
1.0949 1.59732 0
-0.58656 2.14309 0
-1.39681 0.898843 0
-1.56336 0.863673 0
-2.13251 -0.776486 0
-1.65223 -1.67947 0
4.72547 -1.15287 0
5.57644 -0.308193 0
3.81068 1.29542 0
3.52501 1.23762 0
2.69358 2.22821 0
1.60886 2.18506 0
1.10773 5.76252 0
0.182742 5.76528 0
-0.669313 3.94965 0
-1.93654 3.11174 0
-1.91318 1.22788 0
-3.22128 0.974924 0
-3.75959 -0.0339608 0
-3.47864 -0.75387 0
6.64794 -0.342847 0
7.30227 0.355235 0
7.18112 1.67463 0
5.01589 2.92501 0
5.51363 3.48601 0
3.21573 4.88613 0
2.52546 6.15484 0
1.59133 6.35143 0
0.697033 9.39626 0
-0.957545 9.47561 0
-0.670025 6.60324 0
-2.26315 5.73096 0
-3.32173 4.26025 0
-4.3069 4.31954 0
-5.06237 2.95614 0
-6.48584 2.67982 0
-6.79399 1.62737 0
-5.30568 0.239389 0
7.63614 2.28435 0
7.34099 3.33324 0
6.61649 3.77814 0
5.99137 5.84589 0
3.67336 7.10934 0
3.63194 7.90986 0
2.20044 9.48614 0
2.76032 10.1847 0
-1.96905 10.7896 0
-1.91153 10.0211 0
-3.12999 8.79329 0
-2.83692 6.71733 0
-4.52063 7.09029 0
-5.90111 5.82812 0
-7.85152 4.40346 0
-7.71604 3.8637 0
8.29199 3.70819 0
8.29209 3.71069 0
6.93032 5.79018 0
7.41055 6.97993 0
6.23849 8.26603 0
6.48173 8.93562 0
5.8172 9.92381 0
5.64002 10.3024 0
-2.75542 13.0496 0
-2.9571 12.8305 0
-6.30283 10.2729 0
-5.61676 9.41713 0
-6.32998 8.13935 0
-6.23246 7.93783 0
-8.83613 4.93306 0
-8.68715 4.57126 0
9.84228 3.94432 0
10.2077 4.88848 0
9.46522 5.91434 0
10.6544 6.27991 0
10.4499 7.81801 0
10.6905 8.54746 0
10.1438 13.3195 0
11.1021 15.5925 0
-9.96401 15.6896 0
-9.92906 15.544 0
-10.285 9.57305 0
-9.97362 9.0162 0
-10.3082 8.40197 0
-9.55786 7.28093 0
-10.3489 6.03842 0
-9.89302 5.04981 0
3.45305 -4.62998 0
4.67119 -4.11837 0
5.51666 -3.73976 0
7.91689 -2.22032 0
9.25613 -0.826571 0
10.6677 1.45727 0
10.7628 1.61593 0
11.5071 2.66103 0
12.3743 4.55753 0
12.6182 5.33151 0
12.9661 8.854 0
13.576 16.0267 0
-13.2751 16.2507 0
-12.8312 9.53832 0
-12.7438 8.24178 0
-12.3645 5.6913 0
-11.4966 3.74864 0
-10.6443 2.64648 0
-10.045 1.92032 0
-9.15184 0.591942 0
-7.24971 -1.56267 0
-5.20241 -2.98941 0
-3.12812 -4.01782 0
-0.149382 -4.8995 0
12.879 10.5503 0
9.01693 10.6711 0
-13.0985 12.1764 0
-10.3413 12.8666 0
-0.436219 3.62225 0
0.895753 3.69041 0
-1.94098 5.68184 0
-1.25402 3.9555 0
4.51224 5.0466 0
4.9442 5.95834 0
0.394256 10.8962 0
0.171526 9.91024 0
-1.1954 7.90962 0
-2.44198 7.63693 0
5.99057 5.84825 0
5.25353 7.80646 0
4.28853 8.33218 0
4.3133 9.58041 0
2.3355 11.0851 0
2.33339 11.0838 0
-2.60828 11.1134 0
-4.14354 9.56407 0
-3.69967 8.83106 0
-4.63503 7.66969 0
1.19349 0.963609 0
-0.286065 0.00270428 0
6.36376 1.94541 0
5.22247 0.432687 0
5.0139 2.92651 0
3.00977 3.78481 0
-9.1881 11.1472 0
-6.11079 10.9117 0
3.00727 3.78483 0
1.56954 4.50111 0
-9.54704 7.21962 0
-8.12675 6.59223 0
-1.03722 -1.94897 0
-1.51542 -4.62651 0
7.25567 33.4847 0
8.48058 35.1519 0
0.956499 -2.53622 0
1.10425 -1.08707 0
2.57927 8.33095 0
1.3705 7.30374 0
8.82615 10.1798 0
5.81798 9.92621 0
9.61762 21.4191 0
0.277842 12.6403 0
-2.92634 -1.02134 0
-3.68867 -3.76767 0
-4.50827 2.02201 0
-5.41788 0.863322 0
-5.8367 -2.60161 0
-4.72379 -0.165543 0
0.402306 7.81923 0
-0.56917 7.38756 0
9.42516 5.76083 0
7.78844 5.02836 0
5.3742 -0.833611 0
7.02962 -2.88241 0
1.39991 -5.00877 0
1.48949 -2.98291 0
-6.36982 1.00015 0
-7.99147 -0.860889 0
-5.52368 4.7272 0
-6.85165 3.52221 0
7.45488 1.79936 0
9.8574 0.0323598 0
-12.613 7.068 0
-9.56959 7.26155 0
13.0021 7.36092 0
10.9087 7.28894 0
-2.91886 3.32041 0
-3.84704 1.99753 0
-9.62817 1.34667 0
-6.84657 2.95926 0
-3.69062 6.54303 0
-4.47163 4.6251 0
-6.96908 6.75991 0
-6.55015 5.9336 0
8.42463 7.11726 0
8.66886 7.62874 0
-0.827291 12.5171 0
-0.690181 11.6351 0
12.8832 10.5594 0
10.3896 11.8737 0
10.3082 14.3009 0
2.14266 11.4608 0
8.13459 8.84083 0
9.46329 9.58569 0
-7.50287 8.26406 0
-7.84664 9.05421 0
-2.31757 14.7338 0
0.967985 13.8498 0
-10.2444 13.4111 0
-4.28294 12.7597 0
9.46228 9.588 0
12.8845 9.95985 0
-10.9732 14.712 0
-13.3759 15.2114 0
-12.8808 10.5749 0
-9.43257 10.7486 0
13.0286 18.8287 0
10.5412 17.2992 0
8.69225 11.1209 0
6.58673 11.2943 0
-9.43249 10.7461 0
-7.52635 9.97338 0
2.59537 14.3749 0
4.39907 12.8601 0
-4.63722 11.3147 0
-3.81506 10.5432 0
5.18541 12.636 0
4.25182 11.1376 0
13.2685 12.3044 0
10.6261 12.4716 0
-2.95845 14.3592 0
-4.81148 13.7287 0
-8.91319 29.9833 0
0.131222 15.2971 0
-6.74918 11.5409 0
-4.71727 13.0773 0
-12.9534 11.3133 0
-9.67943 11.8203 0
6.58874 16.579 0
8.58004 15.0346 0
-0.982827 14.1122 0
-0.614427 12.7351 0
-10.6157 19.1408 0
-13.3698 18.9089 0
5.22039 34.5101 0
2.535 15.3344 0
-3.1845 16.765 0
-10.441 19.5609 0
-10.9568 13.925 0
-13.3051 13.2884 0
-6.8872 15.2735 0
-6.38685 14.0651 0
-6.6221 12.1659 0
-7.51172 13.1986 0
13.5266 14.1744 0
11.0525 14.8503 0
-10.9228 21.0727 0
-13.3047 22.0361 0
6.35945 12.3284 0
5.18704 12.634 0
10.4787 16.2258 0
8.63417 15.7604 0
4.22381 13.8544 0
7.04878 16.1746 0
-2.10468 15.8973 0
-0.394993 16.2045 0
13.4392 23.8603 0
11.0362 23.7319 0
0.466094 15.2322 0
1.53187 16.0027 0
10.8794 25.8889 0
4.35564 15.9862 0
13.3854 13.2339 0
10.46 13.7254 0
-8.69987 14.9259 0
-8.7934 14.0332 0
-9.57829 12.1244 0
-7.53133 12.8423 0
-10.2374 18.5923 0
-6.53416 16.8346 0
3.55563 35.7094 0
3.66586 37.5035 0
1.95525 13.7184 0
2.70483 12.2519 0
-4.0687 15.9774 0
-4.08605 15.0464 0
-13.3025 17.8355 0
-10.5461 17.9887 0
0.0485398 17.5223 0
-0.183621 17.3886 0
8.07513 13.3703 0
7.66152 14.1953 0
8.95956 11.6936 0
7.91338 13.0208 0
-11.0977 20.3184 0
-13.4402 20.0907 0
-2.63377 16.705 0
-1.64805 17.9683 0
1.79371 16.9578 0
3.74461 16.9914 0
6.6512 14.3131 0
6.43306 14.7488 0
-7.73181 18.3998 0
-7.50805 18.6915 0
-9.49829 16.2354 0
-6.77064 16.2091 0
4.31465 15.8913 0
5.00054 14.7991 0
-10.1341 22.9196 0
-3.88514 18.1724 0
13.3997 25.3806 0
11.4878 25.1749 0
-11.4176 30.744 0
-9.90404 29.6224 0
9.08794 17.7113 0
8.05889 16.3851 0
12.9131 20.3259 0
9.99162 20.5999 0
4.60362 18.24 0
6.50429 19.1788 0
1.59803 19.2113 0
3.92932 18.6431 0
-0.430869 25.2363 0
-2.83668 24.0224 0
-2.75244 22.237 0
-4.44734 20.0125 0
-6.52975 15.8166 0
-4.27638 14.9609 0
-9.59537 21.4222 0
-8.33119 19.9257 0
7.18323 24.2322 0
7.68518 21.1792 0
-13.2576 16.8223 0
-9.86503 16.9132 0
-9.84554 16.9509 0
-7.60442 17.6517 0
0.0562843 19.3993 0
0.29507 19.1 0
7.60009 32.7459 0
2.35649 22.3432 0
10.9407 32.9293 0
9.73524 31.8312 0
-13.3361 25.0907 0
-11.1441 24.5776 0
-5.61462 17.0786 0
-5.33534 18.0152 0
8.67766 18.3171 0
7.47133 18.101 0
1.69248 17.1093 0
2.24386 18.1765 0
10.7567 16.8029 0
13.4589 17.0584 0
12.877 19.3512 0
9.08121 17.9958 0
-10.3903 25.206 0
-4.4054 20.1765 0
-1.99615 18.8558 0
-3.52241 18.8841 0
3.79981 22.8866 0
4.54791 22.3154 0
-5.95865 18.7607 0
-5.67831 19.6707 0
4.62803 17.9229 0
6.60177 17.0767 0
-1.54977 21.922 0
0.00544437 23.2324 0
1.9127 28.903 0
6.73685 31.3565 0
-4.68938 34.6643 0
-5.38409 35.8123 0
-0.159568 35.3093 0
-1.77618 24.9631 0
-13.3949 23.1277 0
-11.1256 23.636 0
-1.63391 19.3654 0
-3.37077 20.6204 0
-7.17315 21.7422 0
-5.63084 21.5939 0
9.47105 29.5236 0
7.39339 30.3401 0
5.44742 20.9379 0
7.05602 21.6643 0
10.9269 23.8697 0
8.4195 23.4718 0
13.195 22.0113 0
10.8667 22.9036 0
-10.0667 28.4612 0
-3.39538 21.7991 0
12.1087 30.8563 0
10.3559 30.4512 0
2.6969 20.3475 0
3.99301 19.6305 0
-12.9465 27.4222 0
-10.8762 27.2008 0
-0.894329 26.8298 0
3.97305 24.017 0
0.532744 20.6133 0
2.15589 21.0866 0
-8.30065 20.0204 0
-6.90927 20.587 0
9.20852 19.5128 0
7.58624 20.0015 0
-1.17258 21.0981 0
-1.93913 20.1045 0
12.867 19.4527 0
9.21008 19.5109 0
-1.9552 24.3732 0
-0.856424 23.1058 0
-5.39765 22.1256 0
-4.36439 22.4173 0
-3.60802 24.4439 0
-4.3288 23.9472 0
-13.3049 22.0462 0
-10.188 22.6083 0
5.13768 24.4624 0
6.06681 23.7389 0
0.388804 30.0297 0
1.4185 35.353 0
-7.67251 22.9124 0
-7.01983 23.815 0
0.437405 35.7745 0
0.237417 37.5407 0
-6.00839 29.2627 0
-4.5934 29.8569 0
9.85527 22.2561 0
8.4429 22.8915 0
13.2245 26.8957 0
11.1117 26.5618 0
5.97782 22.9454 0
7.10155 22.1517 0
2.69151 20.7204 0
4.47772 21.6215 0
3.26708 24.5976 0
3.73348 28.1462 0
5.39225 20.3226 0
6.5474 19.4864 0
1.84221 22.8001 0
2.14192 24.1998 0
13.0216 21.1664 0
9.9529 21.8098 0
-2.4589 32.7664 0
-1.8485 30.7109 0
-7.98062 31.2696 0
-8.9983 33.2838 0
0.121028 21.1289 0
0.643871 22.494 0
-6.40863 23.7712 0
-5.77394 24.5062 0
-9.44089 21.8635 0
-7.17348 21.7397 0
6.72738 26.6931 0
8.72604 25.7068 0
-12.2644 29.3711 0
-10.5248 28.2861 0
-5.91773 25.2058 0
-5.04208 26.0195 0
2.79268 32.0532 0
5.67689 31.3587 0
-6.4147 31.837 0
-5.67627 29.7913 0
6.34839 27.3875 0
4.66665 27.4116 0
2.83279 27.8635 0
1.78413 26.279 0
-3.85 25.7345 0
-3.30024 26.3898 0
4.93736 35.293 0
5.83529 36.8324 0
0.377685 24.3776 0
1.55166 24.7194 0
-8.09885 25.2029 0
-7.97182 25.8268 0
2.59387 33.3198 0
1.61364 33.7132 0
-2.65939 26.3255 0
-2.22204 26.9131 0
8.8285 31.9156 0
8.14489 30.4478 0
-2.91839 35.3041 0
-3.44659 36.7315 0
-3.47535 34.6167 0
-2.92199 32.8869 0
9.24671 25.3284 0
9.29831 24.0892 0
-7.5762 28.4564 0
-7.33048 26.0476 0
9.53986 29.1157 0
8.67666 27.1653 0
-0.444597 33.2851 0
0.531425 31.0235 0
-9.17926 23.4123 0
-9.22107 24.7036 0
9.67539 34.1962 0
8.45687 32.6769 0
12.9901 28.2182 0
10.7872 27.9288 0
6.44915 33.5743 0
5.3209 32.1091 0
-0.822301 29.679 0
-0.284521 28.081 0
-5.77105 33.2751 0
-7.0285 34.6708 0
3.48083 25.8875 0
2.58241 26.6147 0
5.03709 29.9851 0
5.31887 27.7531 0
5.344 25.6161 0
4.53148 26.295 0
-3.68098 28.7557 0
-3.01062 28.9213 0
7.30202 25.1435 0
6.44736 25.9381 0
4.10584 29.7676 0
3.88773 31.5862 0
-7.62414 31.1702 0
-6.96229 29.3351 0
6.11386 34.371 0
7.25472 36.0082 0
-5.25852 27.8489 0
-4.07312 27.8583 0
-5.1261 33.4813 0
-3.62726 32.3639 0
1.78751 31.1768 0
1.18098 31.4115 0
-10.4807 31.9418 0
-8.83982 30.6428 0
-7.83817 34.0783 0
-6.84422 31.9684 0
0.0593764 33.6505 0
0.991324 33.2451 0
1.42221 28.8504 0
0.99464 28.0757 0
4.31804 33.5361 0
4.66163 32.2441 0
-1.87425 35.0658 0
-1.54269 33.7082 0
-5.57782 27.3368 0
-6.92122 27.3164 0
-3.69146 31.3416 0
-2.66186 30.478 0
-0.205953 25.9736 0
1.32118 26.5846 0
-1.56287 37.2686 0
-1.21805 35.6868 0
7.47279 28.7715 0
8.68837 28.4277 0
10.4938 27.3372 0
8.92361 26.9625 0
-10.2759 26.2857 0
-8.80327 26.5507 0
3.03659 35.323 0
3.25724 33.8695 0
-7.79337 28.4751 0
-8.71143 27.5958 0
-1.65111 31.3606 0
-0.464515 31.7242 0
-2.4293 28.4465 0
-1.01687 28.9619 0
-13.1574 26.2125 0
-10.5831 25.8207 0
7.03933 29.6223 0
5.54818 29.4148 0
2.0127 35.7799 0
1.94368 37.6172 0
12.4115 30.0649 0
10.4169 28.8423 0
-5.86291 32.2405 0
-4.24405 31.1238 0
3.77592 30.0877 0
2.35156 29.8452 0
-3.83218 27.4005 0
-2.35415 27.8905 0
CELLS 290 1939
5 0 160 161 4 5
6 6 7 8 9 3 2
6 144 145 4 161 3 9
8 12 13 14 15 156 5 4 145
8 7 16 178 17 147 18 19 8
7 8 19 20 21 10 144 9
6 23 24 124 125 153 22
8 25 26 13 12 11 124 24 127
7 26 27 28 29 168 14 13
6 31 32 146 147 17 30
7 18 33 148 149 152 20 19
5 20 152 153 125 21
7 22 37 163 174 175 40 23
5 24 23 40 126 127
5 26 25 192 193 27
7 28 27 193 170 171 47 173
9 33 146 32 186 48 49 50 34 148
5 35 128 129 52 36
6 36 52 53 162 163 37
6 38 54 55 139 130 131
7 40 175 132 133 59 41 126
6 42 41 59 196 197 43
7 44 43 197 184 185 195 45
8 49 64 65 177 66 134 51 50
7 51 134 135 136 53 52 129
6 53 136 137 55 54 162
8 55 137 70 165 71 233 138 139
7 57 56 140 231 141 142 58
7 59 133 58 142 143 60 196
6 61 60 143 77 198 199
5 65 80 81 176 177
6 67 200 201 208 69 68
7 69 208 209 216 164 165 70
5 71 225 264 265 233
8 73 72 236 291 333 237 241 215
5 92 93 210 211 91
8 77 76 210 93 189 154 155 198
5 2 1 96 97 6
5 7 6 97 98 16
5 17 178 179 99 30
4 48 186 187 101
5 49 48 101 102 64
5 65 64 102 103 80
6 81 104 105 83 82 176
4 190 191 83 105
5 121 164 216 217 120
5 214 254 255 122 123
5 91 90 109 110 92
5 110 188 189 93 92
5 78 95 112 113 79
5 62 79 113 114 63
5 195 185 63 114 194
4 47 116 172 173
5 14 168 169 118 15
5 5 156 157 119 0
5 160 0 119 180 181
4 99 100 31 30
4 103 104 81 80
5 293 284 248 249 292
4 111 112 95 94
5 182 183 116 47 171
6 120 204 205 298 224 121
5 122 242 243 282 123
5 124 11 10 21 125
6 126 41 42 192 25 127
5 128 34 50 51 129
6 130 203 56 57 39 131
5 132 39 57 58 133
5 134 66 67 68 135
6 136 135 68 69 70 137
8 138 207 167 247 202 203 130 139
5 140 73 215 230 231
6 142 141 75 76 77 143
5 144 10 11 12 145
4 146 33 18 147
5 148 34 128 35 149
7 150 221 226 227 74 151 240
7 152 149 35 36 37 22 153
5 154 94 95 78 155
4 156 15 118 157
4 222 223 356 357
6 160 181 1 2 3 161
5 162 54 38 174 163
6 164 121 224 225 71 165
7 166 445 430 431 435 387 337
4 168 29 117 169
6 170 44 45 46 182 171
5 172 117 29 28 173
6 174 38 131 39 132 175
6 176 82 200 67 66 177
4 178 16 98 179
4 180 96 1 181
4 182 46 115 183
6 184 61 199 62 63 185
5 186 32 31 100 187
5 188 111 94 154 189
5 190 106 85 84 191
6 192 42 43 44 170 193
5 194 115 46 45 195
5 196 60 61 184 197
6 198 155 78 79 62 199
6 200 82 83 191 84 201
6 202 72 73 140 56 203
4 204 234 235 205
6 206 261 87 266 267 245
5 208 201 84 85 209
6 210 76 75 74 227 211
6 274 239 246 247 167 213
6 214 123 282 283 259 281
5 216 209 85 106 217
5 218 89 88 108 219
5 220 109 90 226 221
5 222 358 359 320 223
5 224 298 299 264 225
5 226 90 91 211 227
5 228 288 289 229 268
6 230 151 74 75 141 231
7 232 229 289 207 138 233 265
5 234 278 279 86 235
7 236 212 270 302 252 290 291
6 253 248 284 308 309 335
6 240 151 230 215 241 258
5 242 220 221 150 243
6 244 277 312 313 307 269
6 246 212 236 72 202 247
5 248 253 300 301 249
8 304 354 294 295 271 239 274 275
6 252 302 303 362 363 315
4 254 218 219 255
5 256 280 281 259 257
6 258 241 237 257 259 283
4 260 107 87 261
4 448 449 530 531
7 264 299 296 297 306 232 265
6 320 321 267 266 356 223
6 268 229 232 306 307 313
5 270 212 246 239 271
5 272 316 317 388 273
6 274 213 288 228 251 275
6 276 433 552 553 457 488
5 278 260 261 206 279
6 280 89 218 254 214 281
6 282 243 150 240 258 283
5 284 293 340 341 308
4 286 472 473 287
5 288 213 167 207 289
7 285 311 332 333 291 290 350
5 292 338 339 340 293
6 328 377 412 413 371 474
6 296 86 279 206 245 297
6 298 205 235 86 296 299
4 300 262 263 301
5 302 270 271 295 303
6 304 275 251 312 277 305
7 306 297 245 267 321 269 307
7 308 341 285 350 351 366 309
7 310 88 89 280 256 332 311
5 312 251 228 268 313
7 314 419 454 455 382 424 496
5 316 432 433 276 317
5 318 458 459 392 319
8 320 359 352 353 369 244 269 321
5 322 444 445 166 323
5 324 368 369 353 325
5 326 343 294 354 355
6 535 479 423 426 376 534
6 330 329 416 417 415 393
5 332 256 257 237 333
6 334 262 300 253 335 404
6 336 421 434 435 431 389
5 338 108 88 310 339
6 340 339 310 311 285 341
7 294 343 342 380 362 303 295
6 344 158 502 503 463 373
5 346 498 499 482 347
4 348 378 379 349
5 350 290 252 315 351
7 352 411 406 407 441 325 353
7 354 304 305 368 324 327 355
5 356 266 87 107 357
5 358 410 411 352 359
6 360 349 379 314 496 497
7 362 380 409 381 361 331 363
6 364 345 403 436 437 365
6 366 351 315 363 331 367
5 368 305 277 244 369
6 451 371 413 370 408 450
6 438 508 509 469 475 443
5 486 484 485 375 374
6 376 549 540 541 494 534
5 378 418 419 314 379
6 380 342 402 450 408 409
7 382 455 405 367 331 361 383
5 384 395 347 482 483
6 386 440 441 407 337 387
5 388 317 276 488 489
4 390 272 273 391
6 392 459 399 554 555 559
4 394 346 347 395
5 396 326 355 327 397
5 398 564 565 554 399
5 400 546 547 537 505
7 402 342 343 326 396 436 403
6 404 335 309 366 367 405
5 406 323 166 337 407
6 408 370 330 393 381 409
5 410 322 323 406 411
5 412 329 330 370 413
6 414 383 361 381 393 415
5 542 543 491 460 461
6 418 263 262 334 454 419
6 420 401 364 365 434 421
7 575 528 529 495 422 536 372
6 424 382 383 414 452 425
5 426 423 568 569 427
6 428 524 525 514 429 465
7 430 391 273 388 489 389 431
5 432 500 501 552 433
6 434 365 437 386 387 435
6 436 396 397 440 386 437
6 438 401 420 512 513 508
6 440 397 327 324 325 441
6 442 345 364 401 438 443
5 444 390 391 430 445
7 446 487 527 544 545 447 560
6 464 572 506 507 532 533
6 450 402 403 345 442 451
5 452 414 415 417 453
5 454 334 404 405 455
6 421 336 516 517 512 420
4 458 398 399 459
6 460 453 417 416 470 461
6 439 518 574 575 372 468
6 464 533 520 521 428 465
5 566 567 511 466 550
7 468 372 536 537 547 469 509
7 470 416 329 412 377 480 471
5 472 250 522 523 473
6 474 371 451 442 443 475
7 476 425 452 453 460 491 477
6 538 250 472 286 556 557
6 480 377 328 546 400 481
6 482 499 344 373 385 483
5 427 548 549 376 426
5 486 374 526 527 487
6 488 457 516 336 389 489
7 490 558 559 555 477 491 543
7 492 384 483 385 566 550 551
5 494 541 446 560 561
5 496 424 425 476 497
5 498 159 158 344 499
4 500 570 571 501
6 538 539 503 502 522 250
6 504 447 545 515 562 563
5 526 374 375 507 506
6 508 513 467 439 468 509
6 511 567 510 518 439 467
7 512 517 456 466 511 467 513
6 514 525 576 577 562 515
6 516 457 553 493 456 517
7 518 510 463 503 539 519 574
7 520 448 531 238 558 490 521
5 522 502 158 159 523
7 524 542 461 470 471 576 525
6 526 506 572 573 544 527
6 528 462 478 479 535 529
5 530 318 319 238 531
5 532 449 448 520 533
6 534 494 561 495 529 535
6 536 422 504 563 505 537
6 538 557 478 462 519 539
6 540 484 486 487 446 541
6 542 524 428 521 490 543
6 544 573 429 514 515 545
6 546 328 474 475 469 547
5 548 485 484 540 549
5 550 466 456 493 551
7 552 501 571 492 551 493 553
7 554 565 360 497 476 477 555
6 557 556 568 423 479 478
5 558 238 319 392 559
6 560 447 504 422 495 561
6 562 577 481 400 505 563
5 564 348 349 360 565
6 566 385 373 463 510 567
5 568 556 286 287 569
6 570 394 395 384 492 571
5 572 464 465 429 573
5 574 519 462 528 575
5 576 471 480 481 577
CELL_TYPES 290
7
7
7
7
7
7
7
7
7
7
7
7
7
7
7
7
7
7
7
7
7
7
7
7
7
7
7
7
7
7
7
7
7
7
7
7
7
7
7
7
7
7
7
7
7
7
7
7
7
7
7
7
7
7
7
7
7
7
7
7
7
7
7
7
7
7
7
7
7
7
7
7
7
7
7
7
7
7
7
7
7
7
7
7
7
7
7
7
7
7
7
7
7
7
7
7
7
7
7
7
7
7
7
7
7
7
7
7
7
7
7
7
7
7
7
7
7
7
7
7
7
7
7
7
7
7
7
7
7
7
7
7
7
7
7
7
7
7
7
7
7
7
7
7
7
7
7
7
7
7
7
7
7
7
7
7
7
7
7
7
7
7
7
7
7
7
7
7
7
7
7
7
7
7
7
7
7
7
7
7
7
7
7
7
7
7
7
7
7
7
7
7
7
7
7
7
7
7
7
7
7
7
7
7
7
7
7
7
7
7
7
7
7
7
7
7
7
7
7
7
7
7
7
7
7
7
7
7
7
7
7
7
7
7
7
7
7
7
7
7
7
7
7
7
7
7
7
7
7
7
7
7
7
7
7
7
7
7
7
7
7
7
7
7
7
7
7
7
7
7
7
7
7
7
7
7
7
7
7
7
7
7
7
7
7
7
7
7
7
7
CELL_DATA 290
SCALARS cell_division_count float
LOOKUP_TABLE default
1
0
1
0
0
0
1
0
0
1
1
1
1
1
1
1
0
1
1
1
1
1
1
0
1
1
1
1
1
1
1
1
2
4
3
1
1
0
0
1
1
0
0
0
1
2
3
0
1
0
0
1
1
1
1
1
0
0
3
0
1
2
3
1
1
1
1
1
1
1
2
2
1
1
1
1
2
1
1
1
3
1
1
2
9
1
1
1
1
1
1
1
1
1
1
1
1
1
1
1
1
1
2
3
5
2
1
3
5
2
2
2
5
3
2
4
2
3
5
5
6
3
3
6
3
4
6
9
3
5
4
4
8
5
6
6
5
4
5
14
5
5
5
7
5
4
6
4
10
5
3
4
6
6
6
7
6
6
11
7
8
7
6
7
8
12
11
6
8
9
4
7
8
11
6
7
7
8
8
3
6
12
10
11
9
7
11
13
8
12
8
11
10
11
9
9
5
14
6
10
8
13
10
10
8
11
6
10
11
14
8
11
11
11
8
11
9
8
9
11
13
9
11
6
13
9
11
12
11
13
8
12
12
11
14
14
10
6
12
13
11
11
11
9
12
9
14
14
12
12
6
9
12
14
8
13
13
13
13
13
11
11
6
11
13
11
8
9
12
14
12
12
14
13
13
9
14
14
14
11
14
12
14
8
14
8
9
13
12
13
SCALARS cell_time float
LOOKUP_TABLE default
1681
2.22229e+13
1701
4.48239e+13
2.67348e+11
1.25633e+10
1711
2.68224e+09
9.19769e+11
1701
1701
1691
1661
1711
1631
1671
1.22769e+06
1711
1681
1711
1711
1611
1651
25493.4
1711
1711
1711
1711
1711
1601
1661
1601
1561
1301
1451
1551
1691
1.00108e+18
2.94533e+15
1661
1651
106793
3055.76
1767.34
1641
1541
1341
1758.01
1651
4409.01
2026.18
1631
1671
1681
1691
1661
1.12104e+13
22876.3
1131
3747.96
1661
1581
1401
1711
1711
1711
1711
1711
1711
1711
1591
1471
1711
1701
1701
1701
1531
1691
1691
1691
831
1681
1681
1541
461
1681
1671
1671
1661
1661
1661
1661
1661
1651
1651
1651
1641
1631
1631
1611
1601
1601
1591
1461
1281
1561
1551
1401
1181
1541
1541
1541
831
1121
1531
1151
1471
1461
1191
1151
1041
1421
1401
1031
1401
1121
1131
821
1341
1191
1321
1321
101
1131
1021
1051
1251
1031
1221
51
1191
1191
1181
881
311
1151
921
901
551
1131
1121
1121
1121
1111
1051
851
1041
1031
391
461
381
841
431
771
841
91
521
921
911
461
901
881
881
231
241
711
851
571
841
831
561
251
701
461
781
771
401
191
271
71
521
571
691
281
461
261
661
51
641
641
41
61
611
581
571
571
561
551
531
71
521
511
121
501
31
151
461
241
461
461
181
461
451
431
71
101
401
401
391
171
381
381
21
161
41
91
321
161
301
291
51
291
281
61
141
261
51
61
51
251
241
31
81
51
201
191
191
181
1
171
171
161
161
151
31
121
101
101
91
91
81
71
71
71
61
61
61
51
51
51
51
51
51
41
41
31
31
31
21
1
SCALARS cell_area float
LOOKUP_TABLE default
3.24247
3.30063
3.29403
3.35682
3.3519
3.34449
3.32801
3.37629
3.34951
3.28216
3.33774
3.28453
3.38633
3.32047
3.30714
3.33077
3.39982
3.29003
3.34658
3.39485
3.39225
3.34137
3.34061
3.3737
3.36076
3.37709
3.43635
3.40385
3.39238
3.33099
3.24826
3.29952
3.34709
3.329
3.44522
3.25215
3.34761
3.25296
3.2615
3.24901
3.23769
3.27903
3.26293
3.28007
3.22171
3.28868
3.26191
3.26526
3.26065
3.24951
3.26909
3.27447
3.2171
3.2576
3.2451
3.24249
3.21011
3.21834
3.27806
3.19768
3.24685
3.30864
3.27407
3.28176
3.33892
3.28755
3.39667
3.35241
3.28302
3.36004
3.44724
3.35218
3.35814
3.28774
3.24868
3.27667
3.3425
3.35221
3.23323
3.2225
3.22863
3.2591
3.33536
3.32833
3.35655
3.22314
3.29767
3.25281
3.37121
3.28932
3.22492
3.20408
3.21678
3.30538
3.25216
3.24649
3.26046
3.32545
3.26403
3.30199
3.29153
3.26571
3.39767
3.23853
3.29912
3.24427
3.33016
3.38431
3.29279
3.28045
3.26583
3.27443
3.28285
3.29167
3.24918
3.31119
3.35703
3.40035
3.26281
3.42383
3.29829
3.35195
3.27657
3.33867
3.40092
3.27389
3.43338
3.38554
3.22179
3.2795
3.33362
3.21547
3.24804
3.36931
3.32054
3.3458
3.35815
3.27209
3.36093
3.29615
3.25791
3.28526
3.31702
3.27325
3.23343
3.34554
3.39165
3.27838
3.32646
3.31682
3.30236
3.2457
3.36078
3.3498
3.3823
3.38167
3.34033
3.30077
3.34299
3.28195
3.26482
3.40524
3.29702
3.30991
3.35222
3.29239
3.32579
3.32464
3.29356
3.33733
3.28022
3.32462
3.41428
3.29884
3.2742
3.23964
3.35307
3.36452
3.37146
3.24908
3.29978
3.3016
3.41154
3.35022
3.37792
3.30697
3.34518
3.33875
3.29484
3.2866
3.28888
3.38196
3.38302
3.24494
3.34017
3.2624
3.24579
3.28869
3.22589
3.32205
3.27464
3.2777
3.39121
3.34307
3.29624
3.35837
3.29742
3.30157
3.3563
3.29114
3.31163
3.34136
3.3434
3.32596
3.29641
3.31071
3.33732
3.28525
3.3424
3.34193
3.34116
3.33457
3.34432
3.29053
3.32178
3.33709
3.35945
3.29395
3.28971
3.33293
3.22744
3.32157
3.32668
3.30103
3.27009
3.35577
3.35939
3.28158
3.33949
3.34529
3.27927
3.31864
3.28629
3.30025
3.25634
3.31379
3.34259
3.31994
3.25864
3.29392
3.29058
3.25528
3.29557
3.30638
3.30508
3.33923
3.31731
3.35199
3.34704
3.30742
3.33711
3.32082
3.29281
3.32375
3.28931
3.29641
3.27369
3.2998
3.29318
3.31078
3.29665
3.27998
3.31485
3.30556
3.32235
3.29933
3.27161
3.32979
3.34124
3.28961
3.26123
3.30421
3.27329
3.27744
3.30372
3.28248
3.30621
3.26615
3.28192
3
SCALARS cell_perimeter float
LOOKUP_TABLE default
6.93036
6.94224
6.96887
7.19414
7.12579
6.82611
7.06367
7.60269
6.93412
6.93091
7.38468
6.99963
6.81088
7.21374
7.03548
6.79314
7.17928
6.96712
6.94671
7.09075
6.91977
7.22942
7.22534
7.5373
7.54379
6.94028
8.16265
7.01228
6.8646
7.05414
6.95577
7.02277
8.2624
7.02623
7.01951
7.31545
7.86341
7.52548
7.83279
7.64222
8.28166
8.67687
8.19287
7.75865
7.38143
9.29271
7.83796
7.62428
8.04314
7.65798
8.12869
8.45005
7.79178
8.08267
7.67858
7.21896
7.43925
7.39147
7.94442
7.3267
7.73604
9.32087
8.41548
7.03478
7.10799
7.2174
6.93562
7.03428
7.14382
6.88015
7.98622
7.02992
7.13568
7.08534
7.24256
7.21143
7.82046
7.23341
6.9368
7.88028
7.99701
6.79105
7.00929
8.00057
7.28351
7.98887
6.82477
7.99057
7.01156
6.99619
7.80123
7.31567
7.66015
7.10917
7.94006
7.96901
7.3527
6.93203
8.23583
7.15635
7.15295
6.93336
7.19248
7.89635
7.06519
7.01452
6.83442
7.15353
7.25174
8.45736
8.34134
8.48946
9.28991
7.19456
7.24557
7.08329
6.9323
7.69472
8.04082
6.88049
7.62646
7.19939
8.80858
7.30241
7.27056
7.75891
7.04349
7.00708
7.59861
7.00051
7.29062
7.67339
7.41262
7.46786
7.12237
7.19847
7.06758
7.44666
6.86542
6.95873
8.00236
6.85276
7.56454
7.55012
7.29348
7.21246
7.52879
8.46317
6.92137
7.22357
7.20418
7.64731
7.08278
7.29139
6.91069
6.92444
7.92732
7.04838
7.57842
7.23708
7.2102
7.19035
8.33264
7.37705
7.02051
6.94423
6.99931
7.32264
7.29842
6.95883
8.81205
7.90414
7.09169
7.00216
7.12663
7.48246
7.0904
7.14763
7.47094
7.79349
9.61286
6.78552
7.22738
7.10282
6.91806
7.41594
6.88106
6.88596
7.10798
6.89735
8.11718
7.00314
7.58959
6.9414
6.9447
6.96851
7.6104
6.87914
7.32217
7.01998
7.56572
6.94097
7.28798
7.123
7.06365
6.88287
8.80835
7.02866
6.98214
6.93869
8.64169
6.87045
6.95777
7.06017
7.12351
6.90436
7.06907
7.35568
7.07661
7.22005
6.82616
7.19265
6.9126
8.14922
6.87115
7.38557
7.00958
7.05591
7.33153
6.80548
7.33779
6.87318
6.9398
7.2718
7.01352
6.98726
6.88023
7.15562
6.85758
7.01561
6.83256
6.92869
6.93082
7.09768
7.03967
6.85976
6.96708
6.90249
6.91406
6.97962
7.22109
7.4823
6.95544
6.89383
7.16031
6.81281
6.987
6.75803
7.00381
7.10007
6.95327
7.21626
7.23543
6.9515
7.17023
6.94444
7.21539
7.48111
7.01753
6.88149
6.79875
6.9618
6.89081
6.96791
6.94939
7.07407
7.10562
6.85566
6.93775
6.89207
6.98487
6.85801
6.91857
7.61666
6.85693
7.13024
7.60001
7.22423
6.91764
17
SCALARS cell_frequency_modifier float
LOOKUP_TABLE default
4.38292e+17
5.45315e+14
2.676e+14
1.49457e+14
4.19813e+13
3.84971e+12
1.42857e+10
3.28176e+11
4.00509e+13
5.77626e+14
3.98049e+11
1.79385e+12
2.15932e+08
5.66131e+09
1.58037e+12
1.20922e+13
2.02326e+11
7.65981e+09
1.33017e+08
1.28931e+06
1.82412e+08
2.80876e+09
5.23011e+10
7.08279e+09
1.58159e+08
7.39227e+06
869267
1.66574e+06
5.21846e+07
2.947e+08
1.9846e+12
1.15961e+08
3.88603e+06
384707
13389
5.11034e+09
9.00169e+07
6.32924e+18
1.50048e+18
1.67241e+17
7.46564e+14
9.69147e+13
2.96771e+13
5.2469e+11
8.61562e+10
1.62013e+07
9.28565e+06
2.2828e+09
1.58426e+10
4.51725e+12
1.57495e+13
6.20428e+13
9.08123e+16
1.20155e+18
1.0526e+19
10000
5.28084e+16
6.15265e+12
38637.1
9.01011e+11
1.29485e+16
1.00001e+06
3.44435e+07
1.37103e+14
1.71972e+10
7.14136e+10
857859
1.13652e+07
4.3823e+09
9.93742e+06
145134
207076
1.40184e+07
5.47348e+13
4.58192e+14
6.01238e+12
831913
4.09953e+09
2.26164e+11
7.01264e+18
93574.3
6.70083e+17
2.48199e+07
1.36902e+06
10.9396
9.31124e+17
4.03076e+12
1.64277e+17
1.20689e+07
5.7645e+09
9.69775e+17
10000
3.54265e+15
1.67367e+10
3.42404e+15
7.46093e+10
9.70673e+09
1.77991e+11
3.19064e+14
3.13044e+09
1.05521e+10
4.28195e+10
114980
4.76991e+07
10058.4
4.53609e+09
9.22954e+06
11159.2
202267
1.37596e+09
676165
3.7618e+08
5258.52
936092
8.20831e+08
52012.7
1.19664e+06
110931
1.07461e+07
1679.27
308.321
152974
1.14992e+08
2736.18
16434.9
15485.6
728.287
208.619
2.46469e+06
2.42364e+06
47798.7
947718
101.129
28817.2
1364.69
16475.6
3112.69
714.878
5083.2
4.86646
3.18209e+06
130937
291971
63996.9
161.719
59421.1
1258.74
112092
4.71401
25313.5
166957
5952.64
607.186
1308.34
2854.42
209.402
2670.15
14069.5
9.30105
89.1916
134.277
336.416
71.4134
439.402
186.366
2.43217
8.55625
9045.87
157.157
6.81127
270904
1142.25
111.737
1.24848
100.321
829.121
464.169
76.0492
257.672
282103
308.238
8.50239
41.935
12.4054
88.9056
1391.76
10.7496
2.27817
2.17694
5.83312
58.1083
29.9256
20.4689
107.733
35.2916
571.841
1410.14
8.14758
102.366
139.908
282.273
236.261
34.0777
67.8806
114.523
15.9442
166.594
14.4331
14.8683
7.22979
23.7428
5.64007
0.507975
11.2423
2.42484
1.16464
6.57876
15.0579
13.1817
33.3818
2.38364
110.692
5.03249
71.0194
0.67178
0.535214
11.666
21.5359
142.481
3.16084
177.747
3.64748
0.828812
1.15857
156.053
0.760762
1.76996
132.386
5.18807
2.3799
118.054
2.46449
5.72559
1.77921
104.661
4.7776
1.03172
0.914235
100.101
15.6097
2.60595
149.968
1.64251
1.12103
1.04876
1.19221
1.08363
1.04724
0.821394
2.64848
0.555165
0.819582
2.26925
1.64058
3.34175
1.43468
110.523
1.12674
1.90759
1.13637
1.40578
108.991
1.26509
1.0595
2.76406
1.79454
197.621
1.04233
1.89708
3.46416
147.854
1.02376
188.947
454.74
1.09006
22.0171
1.08672
106.398
47.3899
1
SCALARS cell_area_modifier float
LOOKUP_TABLE default
100
1.08443
1.68513
0.367451
0.395079
0.43038
0.587996
0.333526
0.40335
17.5152
0.51015
7.91781
0.31706
0.693878
0.846266
0.559535
0.303731
2.71362
0.414932
0.308596
0.311927
0.461293
0.476505
0.335461
0.349667
0.331612
0.290015
0.299017
0.310252
0.554171
100
1.17241
0.409059
0.576271
0.288567
100
0.406184
100
100
100
100
100
100
100
100
4.04196
100
100
100
100
100
100
100
100
100
100
100
100
100
100
100
0.822191
100
192.667
0.496991
4.69919
0.306957
0.379514
9.1746
0.351795
0.287134
0.38714
0.362837
4.34586
100
100
0.450507
0.384564
100
100
100
100
0.533703
0.582075
0.369802
100
1.30474
100
0.339401
3.15847
100
100
100
0.913112
100
100
100
0.619507
100
0.991424
2.28458
100
0.305335
100
1.22199
100
0.565005
0.320577
2.0424
100
100
100
10.9057
2.19772
100
0.777927
0.36513
0.302143
100
0.292955
1.27594
0.392396
100
0.505687
0.300572
100
0.291478
0.318809
100
100
0.543744
100
100
0.341406
0.685647
0.417932
0.360574
100
0.345487
1.5496
100
6.21505
0.728878
100
100
0.420976
0.313619
100
0.600208
0.738186
0.974705
100
0.347565
0.400554
0.324173
0.32785
0.480466
1.06446
0.443592
25.1304
100
0.297478
1.36643
0.810659
0.382022
2.11722
0.612937
0.626219
1.84665
0.514693
100
0.633078
0.294447
1.24838
100
100
0.377038
0.343434
0.33742
100
1.14911
1.00873
0.295955
0.397798
0.32972
0.858841
0.427199
0.501301
1.63739
5.11504
3.54601
0.326001
0.322365
100
0.484493
100
100
3.77778
100
0.654587
100
100
0.31533
0.440213
1.50914
0.358338
1.33487
1.02664
0.372183
2.3786
0.767596
0.465004
0.436886
0.606506
1.47074
0.799447
0.519317
6.96386
0.454046
0.457641
0.472608
0.538677
0.433608
2.59193
0.662085
0.52882
0.35395
1.73574
2.84729
0.548908
100
0.669757
0.594039
1.04521
100
0.374595
0.356131
100
0.488588
0.424065
100
0.710947
5.61165
1.10516
100
0.757536
0.447022
0.702309
100
1.78947
2.48069
100
1.59229
0.871795
0.927769
0.492754
0.719801
0.389751
0.411974
0.834055
0.524025
0.677608
1.9727
0.640089
3.34104
1.43424
100
1.12671
1.90759
0.78854
1.39952
100
0.747736
0.898911
0.647256
1.19669
100
0.570582
0.468775
2.99482
100
0.942904
100
100
0.958541
13.4419
0.885145
100
44.4615
1
SCALARS cell_Gaussian_modifier float
LOOKUP_TABLE default