# vtk DataFile Version 2.0
2D-vertex
ASCII
DATASET UNSTRUCTURED_GRID
POINTS 250 float
0.384957 -2.17536 0
3.12457 -1.79223 0
3.4419 -0.911461 0
2.44613 0.0375267 0
-0.080686 0.122398 0
-0.79708 -1.22785 0
4.1357 -0.82509 0
4.65418 0.100785 0
3.74321 1.35187 0
2.54197 0.925099 0
1.30692 1.9247 0
-0.545673 2.48016 0
-1.33298 1.27047 0
-1.67948 1.19788 0
-2.15589 -0.149888 0
-1.69415 -0.970131 0
5.25832 0.00941059 0
6.15977 1.08436 0
4.30009 2.16165 0
3.91112 2.03331 0
3.13106 2.77077 0
1.84238 2.60076 0
1.21231 5.71646 0
0.00378253 5.60327 0
-0.637403 3.86532 0
-2.09563 3.23044 0
-2.11431 1.64491 0
-3.5773 1.40255 0
-4.01128 0.668927 0
-3.74459 -0.0281254 0
7.28257 1.24066 0
7.92412 2.28138 0
7.49536 3.462 0
5.39572 3.97901 0
5.96687 4.79063 0
3.46398 5.40996 0
2.69026 6.34315 0
1.63758 6.37911 0
0.464792 9.14414 0
-1.11029 8.96884 0
-0.815573 6.33105 0
-2.70275 5.6158 0
-3.6497 4.49269 0
-4.87311 4.69231 0
-5.53444 3.78728 0
-7.02505 3.71927 0
-7.3454 2.95428 0
-5.75016 1.17044 0
7.99919 4.53166 0
7.62528 5.2563 0
7.09606 5.39707 0
6.02523 7.27659 0
3.64643 7.62467 0
3.39338 8.38777 0
1.8859 9.46251 0
2.41749 10.5762 0
-1.9162 10.3394 0
-1.95275 9.53424 0
-3.27888 8.56313 0
-3.1644 6.64111 0
-4.92058 7.43918 0
-6.32232 6.697 0
-8.35316 6.12452 0
-8.37923 5.35423 0
8.45088 5.94592 0
8.45647 6.21778 0
6.89861 7.65321 0
6.793 9.24366 0
5.5098 9.77393 0
5.41196 10.9748 0
4.59276 11.439 0
4.17065 12.5366 0
-1.9552 12.6961 0
-2.35962 12.3148 0
-5.75755 11.9361 0
-5.52138 10.1965 0
-6.41849 9.58874 0
-6.38443 8.90076 0
-9.06154 7.28595 0
-9.04224 6.5284 0
9.70086 6.85412 0
9.73374 8.20445 0
8.85912 9.11197 0
9.57629 9.73036 0
8.72771 11.365 0
8.61966 12.4139 0
3.92394 15.4998 0
3.49149 16.8083 0
-1.94425 16.9551 0
-2.31561 16.405 0
-8.38451 13.518 0
-8.50655 12.3613 0
-9.18349 11.9596 0
-8.939 10.271 0
-9.8923 9.15884 0
-9.83557 7.70764 0
4.04431 -3.4677 0
5.33964 -2.77954 0
6.30549 -2.20194 0
8.67714 -0.154115 0
9.81491 1.5986 0
10.7769 4.29904 0
10.9551 4.90146 0
11.4014 6.30752 0
11.5923 8.56911 0
11.4964 9.68779 0
10.0698 13.4311 0
4.44551 18.4558 0
-2.65567 18.8677 0
-9.54469 14.427 0
-10.616 12.6909 0
-11.6008 9.5281 0
-11.5151 7.19886 0
-10.9974 5.61674 0
-10.4565 4.36905 0
-9.4758 2.24345 0
-7.54895 -0.343706 0
-5.29452 -2.03837 0
-2.97543 -3.17386 0
0.204459 -3.99693 0
8.41173 15.5615 0
6.50901 14.141 0
-5.43715 17.852 0
-4.75476 15.9791 0
-0.470282 3.66831 0
1.12199 3.86879 0
-2.07338 5.4728 0
-1.53281 3.85645 0
4.87289 5.88973 0
5.03878 6.97013 0
0.250558 10.7387 0
0.0800602 9.45803 0
-1.38306 7.46648 0
-2.77909 7.27851 0
6.0249 7.27907 0
4.78913 9.01392 0
4.01362 9.1386 0
3.5086 10.5208 0
1.90611 11.2105 0
1.90443 11.2087 0
-2.32185 10.6291 0
-4.23233 9.77649 0
-3.99883 8.7967 0
-4.8922 8.14376 0
1.39366 1.52811 0
-0.1216 0.366171 0
6.69719 3.46665 0
5.84694 1.52866 0
5.39282 3.98628 0
3.41801 4.36601 0
-5.94986 14.5928 0
-5.42351 12.188 0
3.26756 4.26668 0
1.70021 4.74091 0
-8.89005 9.7849 0
-7.78777 8.49802 0
-0.915182 -1.28198 0
-1.30044 -3.74897 0
0.724536 17.1308 0
0.765259 19.1748 0
1.31314 -1.75939 0
1.37093 -0.482379 0
2.4407 8.51051 0
1.33724 7.14611 0
6.57817 13.2148 0
4.6332 12.1105 0
1.52221 16.7295 0
-0.0181445 12.8149 0
-3.00962 -0.391525 0
-3.73017 -2.8499 0
-5.03621 2.6474 0
-5.83282 1.80325 0
-6.1172 -1.50783 0
-5.00917 0.590745 0
0.349787 7.515 0
-0.749555 6.93893 0
8.91736 8.64188 0
7.58592 7.40162 0
6.02064 0.528501 0
7.74545 -1.10604 0
1.92202 -4.02412 0
1.86953 -2.16164 0
-6.84486 2.04361 0
-8.39584 0.580034 0
-6.22835 5.47212 0
-7.48596 4.74126 0
7.86092 3.77389 0
10.2818 2.71166 0
-11.2467 11.043 0
-8.94201 10.2685 0
10.9464 11.8599 0
9.34945 11.0622 0
-3.3257 3.559 0
-4.16423 2.52683 0
-9.96667 3.30282 0
-7.55661 4.26749 0
-4.10746 6.61025 0
-5.03796 5.12225 0
-7.11828 8.3272 0
-6.93676 7.00501 0
7.50813 9.7275 0
7.49501 10.6225 0
-0.716176 12.432 0
-0.449151 11.1741 0
7.33901 16.7387 0
6.0721 15.534 0
3.7999 15.542 0
1.18593 12.182 0
6.44728 11.435 0
7.20757 12.8517 0
-7.33909 10.248 0
-7.16221 11.5456 0
-1.85676 15.1274 0
0.622405 14.8304 0
-4.06615 15.7863 0
-3.46639 12.6337 0
7.16915 13.001 0
9.13191 14.6832 0
-3.38059 16.5614 0
-4.0558 18.4108 0
-8.30611 15.7867 0
-6.91821 14.3377 0
2.31991 19.0628 0
2.20902 17.2343 0
6.08325 14.3835 0
4.66987 13.9324 0
-7.09259 13.8351 0
-6.3199 12.1531 0
1.1246 14.8781 0
2.01212 13.4146 0
-4.27148 11.7799 0
-3.72608 10.3959 0
3.01416 13.5102 0
3.67264 12.4702 0
5.43645 18.0101 0
4.87378 16.1989 0
-2.47876 14.4568 0
-3.66736 14.6646 0
-0.184971 16.6718 0
-0.284683 15.6582 0
-5.27777 13.9413 0
-4.07648 14.0818 0
-7.1973 16.7626 0
-5.81711 15.3164 0
1.72616 15.6848 0
3.2544 15.1165 0
-1.31043 14.9731 0
-0.482173 12.7732 0
-0.751765 17.132 0
-0.641042 19.1773 0
CELLS 126 831
5 0 160 161 4 5
6 3 2 6 7 8 9
6 3 9 144 145 4 161
8 156 5 4 145 12 13 14 15
8 7 16 178 17 147 18 19 8
7 10 144 9 8 19 20 21
6 153 22 23 24 124 125
8 25 26 13 12 11 124 24 127
7 168 14 13 26 27 28 29
6 17 30 31 32 146 147
7 18 33 148 149 152 20 19
5 20 152 153 125 21
7 22 37 163 174 175 40 23
5 24 23 40 126 127
5 26 25 192 193 27
7 28 27 193 170 171 47 173
9 34 148 33 146 32 186 48 49 50
5 128 129 52 36 35
6 36 52 53 162 163 37
6 38 54 55 139 130 131
7 40 175 132 133 59 41 126
6 42 41 59 196 197 43
7 44 43 197 184 185 195 45
8 49 64 65 177 66 134 51 50
7 51 134 135 136 53 52 129
6 53 136 137 55 54 162
8 55 137 70 165 71 233 138 139
7 57 56 140 231 141 142 58
7 59 133 58 142 143 60 196
6 61 60 143 77 198 199
5 65 80 81 176 177
6 67 200 201 208 69 68
7 69 208 209 216 164 165 70
7 71 225 86 206 245 232 233
6 73 72 236 237 241 215
5 93 210 211 91 92
8 77 76 210 93 189 154 155 198
5 1 96 97 6 2
5 6 97 98 16 7
5 178 179 99 30 17
4 48 186 187 101
5 48 101 102 64 49
5 64 102 103 80 65
6 82 176 81 104 105 83
4 190 191 83 105
5 164 216 217 120 121
5 218 219 122 123 214
5 90 109 110 92 91
5 188 189 93 92 110
5 95 112 113 79 78
5 79 113 114 63 62
5 185 63 114 194 195
4 47 116 172 173
5 168 169 118 15 14
5 156 157 119 0 5
5 0 119 180 181 160
4 99 100 31 30
4 103 104 81 80
4 248 249 108 88
4 111 112 95 94
5 183 116 47 171 182
5 120 204 205 224 121
4 122 242 243 123
5 124 11 10 21 125
6 126 41 42 192 25 127
5 128 34 50 51 129
6 130 203 56 57 39 131
5 132 39 57 58 133
5 134 66 67 68 135
6 136 135 68 69 70 137
8 138 207 167 247 202 203 130 139
5 140 73 215 230 231
6 142 141 75 76 77 143
5 144 10 11 12 145
4 146 33 18 147
5 148 34 128 35 149
7 150 221 226 227 74 151 240
7 152 149 35 36 37 22 153
5 154 94 95 78 155
4 156 15 118 157
4 223 87 107 222
6 160 181 1 2 3 161
5 162 54 38 174 163
6 164 121 224 225 71 165
7 166 158 238 239 213 228 244
4 168 29 117 169
6 170 44 45 46 182 171
5 172 117 29 28 173
6 174 38 131 39 132 175
6 176 82 200 67 66 177
4 178 16 98 179
4 180 96 1 181
4 182 46 115 183
6 184 61 199 62 63 185
5 186 32 31 100 187
5 188 111 94 154 189
5 190 106 85 84 191
6 192 42 43 44 170 193
5 194 115 46 45 195
5 196 60 61 184 197
6 198 155 78 79 62 199
6 200 82 83 191 84 201
6 202 72 73 140 56 203
4 204 234 235 205
6 206 87 223 166 244 245
5 208 201 84 85 209
6 210 76 75 74 227 211
5 246 247 167 213 239
7 214 123 243 150 240 241 237
5 216 209 85 106 217
5 218 89 88 108 219
5 220 109 90 226 221
5 222 159 158 166 223
5 224 205 235 86 225
5 226 90 91 211 227
5 228 213 167 207 229
6 230 151 74 75 141 231
5 232 229 207 138 233
6 234 107 87 206 86 235
6 236 212 89 218 214 237
7 248 88 89 212 246 239 238
5 240 151 230 215 241
5 242 220 221 150 243
5 244 228 229 232 245
6 246 212 236 72 202 247
5 248 238 158 159 249
CELL_TYPES 126
7
7
7
7
7
7
7
7
7
7
7
7
7
7
7
7
7
7
7
7
7
7
7
7
7
7
7
7
7
7
7
7
7
7
7
7
7
7
7
7
7
7
7
7
7
7
7
7
7
7
7
7
7
7
7
7
7
7
7
7
7
7
7
7
7
7
7
7
7
7
7
7
7
7
7
7
7
7
7
7
7
7
7
7
7
7
7
7
7
7
7
7
7
7
7
7
7
7
7
7
7
7
7
7
7
7
7
7
7
7
7
7
7
7
7
7
7
7
7
7
7
7
7
7
7
7
CELL_DATA 126
SCALARS cell_division_count float
LOOKUP_TABLE default
1
0
1
0
0
0
1
0
0
1
1
1
1
1
1
1
0
1
1
1
1
1
1
0
1
1
1
1
1
1
1
1
2
3
3
1
1
0
0
1
1
0
0
0
1
2
2
0
1
0
0
1
1
1
1
1
0
0
2
0
1
2
3
1
1
1
1
1
1
1
2
2
1
1
1
1
2
1
1
1
2
1
1
2
3
1
1
1
1
1
1
1
1
1
1
1
1
1
1
1
1
1
2
3
4
2
1
3
3
2
2
2
2
2
2
3
2
3
3
3
3
3
3
4
3
2
SCALARS cell_time float
LOOKUP_TABLE default
321
2.22229e+13
341
4.48239e+13
2.67348e+11
1.25633e+10
351
2.68223e+09
9.19769e+11
341
341
331
301
351
271
311
1.22633e+06
351
321
351
351
251
291
24133.4
351
351
351
351
351
241
301
241
201
101
91
191
331
1.00108e+18
2.94533e+15
301
291
105433
1695.76
407.338
281
181
181
398.006
291
3049.01
666.177
271
311
321
331
301
1.12104e+13
21516.3
31
2387.96
301
221
41
351
351
351
351
351
351
351
231
111
351
341
341
341
171
331
331
331
181
321
321
181
91
321
311
311
301
301
301
301
301
291
291
291
281
271
271
251
241
241
231
101
41
201
191
41
61
181
181
181
181
181
171
131
111
101
101
91
91
61
41
41
41
31
SCALARS cell_area float
LOOKUP_TABLE default
3.24498
3.30068
3.28799
3.35849
3.35078
3.33636
3.30752
3.3725
3.34699
3.27626
3.3348
3.27646
3.35132
3.29854
3.29945
3.32836
3.40141
3.26475
3.3084
3.33366
3.35672
3.32256
3.33385
3.35976
3.33025
3.32958
3.38417
3.34066
3.354
3.30872
3.24795
3.28917
3.33406
3.31559
3.28236
3.24206
3.33995
3.26373
3.27312
3.2602
3.25292
3.29217
3.27487
3.29361
3.22754
3.28744
3.28453
3.26938
3.26906
3.26388
3.2831
3.28831
3.22962
3.2705
3.25677
3.25205
3.21852
3.224
3.24647
3.20705
3.26048
3.27098
3.24548
3.27082
3.32265
3.2852
3.32719
3.30127
3.2734
3.3268
3.37233
3.2576
3.31714
3.27994
3.23128
3.2606
3.30563
3.3308
3.23591
3.23497
3.23655
3.26188
3.28789
3.30696
3.31352
3.23562
3.29645
3.26603
3.32138
3.28
3.23661
3.21223
3.22821
3.29802
3.26732
3.26474
3.2651
3.31632
3.27837
3.28353
3.28521
3.26616
3.30936
3.22361
3.27782
3.24861
3.28943
3.25654
3.31625
3.27806
3.28456
3.27988
3.28162
3.24649
3.23833
3.24615
3.28971
3.27777
3.29677
3.29741
3.31977
3.25197
3.28554
3.24489
3.28934
3.28645
SCALARS cell_perimeter float
LOOKUP_TABLE default
6.91146
6.851
7.11327
6.98118
6.98005
6.91533
7.06661
7.19277
6.84192
7.07014
7.30636
6.94425
6.8275
7.07089
6.93988
6.74154
7.08847
6.93109
6.9952
7.01265
6.88186
6.99208
7.01145
7.21276
7.26727
6.83437
7.30395
6.93575
6.79655
6.91782
6.96364
6.81066
7.37439
7.39856
7.03468
6.97545
7.22826
7.30895
7.53984
7.38726
7.8642
8.02015
7.64436
7.28413
7.29735
7.65261
7.20218
7.07259
7.51437
7.21612
7.3857
7.63075
7.51045
7.76081
7.49742
7.1152
7.29486
7.30062
7.3328
7.28599
7.41533
7.3559
7.31454
7.05026
6.92212
7.12167
6.91156
6.97224
7.11019
6.87153
7.28105
6.92239
6.91517
7.20453
7.30842
7.08324
7.10091
7.00642
6.96821
7.65607
7.2975
6.7792
7.00027
7.25019
6.73339
7.68241
6.80556
7.6377
7.00914
6.96719
7.55486
7.27683
7.40078
6.8922
7.59753
7.40309
7.10156
6.80294
7.60235
6.97146
7.00811
6.80825
6.98104
7.30352
6.89382
6.90555
6.92235
7.39302
6.75087
7.55331
7.2224
7.18186
7.18011
6.91983
6.95546
7.17511
7.03946
7.10043
7.50069
6.78041
6.77649
6.93591
7.21969
6.97908
7.35049
7.24787
SCALARS cell_frequency_modifier float
LOOKUP_TABLE default
2.85675e+16
1.55629e+12
7.45172e+11
1.83527e+12
2.93383e+10
2.36352e+09
1.3125e+06
1.81303e+08
1.55579e+11
5.5084e+09
2.54092e+07
6.28667e+07
8336.68
473161
5.78721e+08
7.82121e+09
1.62687e+06
3.0561e+06
2067.8
17.974
7848.84
100542
1.03141e+06
7361.23
550.993
48.1406
2.77972
27.9513
846.326
1030.19
377040
27.6152
1.81935
0.665486
2.28161
1210.91
39.7528
8.6009e+17
8.96381e+14
1.39009e+14
1.99387e+09
601437
167997
159.039
2680.24
1.18194
1.11485
13.1492
75.0696
1.25085e+06
228492
3.0707e+06
4.77815e+14
5.69657e+15
7.83514e+18
10000
5.63427e+12
362809
164.872
67862.6
1.07609e+13
3.23622
103.319
9.89102e+08
1.82668e+06
66190.3
21.0503
377.71
1203.37
18.4978
2.10459
911.652
73.8501
2.98124e+10
4.10628e+10
1.19883e+08
1.15186
150480
58269.1
3.49143e+18
154.346
3.81248e+16
571.898
1.06151
0.456522
6.84873e+16
2.21435e+08
5.13459e+14
362.93
570.827
5.82921e+15
10000
5.39967e+11
59463.4
3.41913e+09
6064.4
730.416
1.56046e+07
1.31907e+08
47183.9
4694.81
457.177
4.04431
105.387
1.66908
758.376
11.8518
141.087
0.498026
3.51382
1.24302
1.83142
1.81538
108.289
338
185.189
10.2951
6.59767
0.643626
0.596612
0.420306
283.94
0.89743
126.089
1.21208
1.26928
SCALARS cell_area_modifier float
LOOKUP_TABLE default
100
0.533898
0.759036
0.306569
0.322251
0.339623
0.492187
0.295775
0.326425
2.06557
0.344262
1.90909
0.318182
0.557522
0.545455
0.380665
0.288991
100
0.482759
0.358974
0.310345
0.405145
0.353933
0.302885
0.369501
0.375
0.292343
0.330709
0.314214
0.473684
100
0.715909
0.34903
0.448399
1.13514
100
0.335106
100
2.73913
100
100
0.642857
2.25
0.626866
100
0.807692
1
4.84615
6
100
1.08621
0.736842
100
4.06452
100
100
100
100
100
100
100
3.07317
100
3.5
0.398734
0.926471
0.386503
0.522822
2.47059
0.392523
0.299287
100
0.425676
1.3125
100
100
0.512195
0.364162
100
100
100
100
0.782609
0.501992
0.456522
100
0.61165
21
0.411765
1.24752
100
100
100
0.570136
7.875
100
126
0.43299
1.46512
1.04132
0.893617
11.4545
0.464945
100
1.65789
100
0.677419
100
0.440559
1.55556
0.961832
1.38462
1.18868
100
100
100
0.659686
1.77465
0.597156
0.583333
0.418605
100
0.863014
100
0.696133
0.834437
SCALARS cell_Gaussian_modifier float
LOOKUP_TABLE default
2.85675e+14
2.91496e+12
9.81735e+11
5.98646e+12
9.10417e+10
6.95924e+09
2.66667e+06
6.12977e+08
4.76615e+11
2.66677e+09
7.38076e+07
3.29302e+07
26201
848686
1.06099e+09
2.05462e+10
5.62949e+06
30561
4283.3
50.0705
25290.7
248164
2.91415e+06
24303.8
1491.18
128.375
9.50842
84.5195
2693.47
2174.85
3770.4
38.5736
5.21259
1.48414
2.00999
12.1091
118.627
8.6009e+15
3.2725e+14
1.39009e+12
1.99387e+07
935568
74665.3
253.705
26.8024
1.46335
1.11485
2.71332
12.5116
12508.5
210357
4.16738e+06
4.77815e+12
1.40154e+15
7.83514e+16
100
5.63427e+10
3628.09
1.64872
678.626
1.07609e+11
1.05306
1.03319
2.82601e+08
4.5812e+06
71443.5
54.4634
722.446
487.079
47.1254
7.03201
9.11652
173.489
2.27142e+10
4.10628e+08
1.19883e+06
2.24887
413222
582.691
3.49143e+16
1.54346
3.81248e+14
730.759
2.1146
1
6.84873e+14
3.62028e+08
2.44504e+13
881.402
457.568
5.82921e+13
100
5.39967e+09
104297
4.34175e+08
60.644
5.79696
3.60391e+07
9.00315e+07
45311.5
5253.71
39.9123
8.69847
1.05387
1.00675
7.58376
17.4955
1.41087
1.13044
2.25889
1.29235
1.32269
1.52723
1.08289
3.38
1.85189
15.606
3.71773
1.07782
1.02276
1.00407
2.8394
1.03988
1.26089
1.74116
1.52112
