# vtk DataFile Version 3.0
2D-vertex
ASCII
DATASET UNSTRUCTURED_GRID

POINTS 590 float
0.202011 -2.92907 0
2.65715 -2.8028 0
3.07772 -1.86818 0
2.08899 -0.766105 0
-0.179483 -0.545554 0
-0.943786 -2.01054 0
3.60896 -1.85242 0
4.21158 -1.01954 0
3.33644 0.523769 0
2.27127 0.244463 0
1.13708 1.53255 0
-0.546444 2.06902 0
-1.35024 0.820221 0
-1.51615 0.784285 0
-2.07715 -0.859588 0
-1.59229 -1.75993 0
4.78153 -1.19855 0
5.62761 -0.349081 0
3.85291 1.24526 0
3.5683 1.18601 0
2.73124 2.17215 0
1.64778 2.12305 0
1.12694 5.70144 0
0.205554 5.69951 0
-0.63875 3.8777 0
-1.90032 3.0313 0
-1.86743 1.14631 0
-3.17389 0.886901 0
-3.70757 -0.125279 0
-3.42311 -0.843708 0
6.69907 -0.377694 0
7.34933 0.323961 0
7.2208 1.64268 0
5.04881 2.88181 0
5.5432 3.4456 0
3.23817 4.83453 0
2.53991 6.1018 0
1.60758 6.29309 0
0.701057 9.34108 0
-0.95014 9.41355 0
-0.651162 6.53309 0
-2.23632 5.65149 0
-3.2897 4.17292 0
-4.27348 4.22747 0
-5.02356 2.85873 0
-6.4454 2.57585 0
-6.74889 1.52159 0
-5.25458 0.140624 0
7.67199 2.25485 0
7.37076 3.30255 0
6.64343 3.74376 0
6.00551 5.8094 0
3.68176 7.06109 0
3.63609 7.86506 0
2.19813 9.43803 0
2.75376 10.1388 0
-1.96421 10.7278 0
-1.90208 9.95134 0
-3.11708 8.71392 0
-2.81487 6.63463 0
-4.49682 6.99814 0
-5.8733 5.72813 0
-7.81725 4.29289 0
-7.67954 3.75403 0
8.31867 3.68263 0
8.31876 3.68512 0
6.94337 5.75873 0
7.4171 6.95075 0
6.23568 8.23236 0
6.47482 8.90324 0
5.80096 9.89055 0
5.61876 10.2737 0
-2.75814 12.9861 0
-2.95984 12.7629 0
-6.28546 10.1726 0
-5.5971 9.32318 0
-6.30679 8.03702 0
-6.20944 7.83811 0
-8.80363 4.8178 0
-8.6534 4.45715 0
9.86726 3.92795 0
10.2268 4.87388 0
9.47752 5.89513 0
10.6644 6.2679 0
10.4493 7.80466 0
10.6846 8.53386 0
10.1088 13.2977 0
11.0628 15.5641 0
-9.959 15.5479 0
-9.92597 15.4147 0
-10.2642 9.44941 0
-9.95233 8.89625 0
-10.2853 8.27951 0
-9.53198 7.16287 0
-10.3205 5.91681 0
-9.86101 4.93035 0
3.52848 -4.68289 0
4.74386 -4.1645 0
5.58731 -3.78111 0
7.97882 -2.2481 0
9.30997 -0.846716 0
10.7082 1.44557 0
10.8024 1.60505 0
11.5402 2.65447 0
12.3957 4.55608 0
12.6347 5.33145 0
12.9602 8.8551 0
13.5418 16.0052 0
-13.2928 16.0906 0
-12.8143 9.40552 0
-12.7226 8.11074 0
-12.3349 5.56227 0
-11.4599 3.62286 0
-10.6032 2.52398 0
-10.0009 1.80034 0
-9.10208 0.475688 0
-7.19013 -1.67053 0
-5.13576 -3.0877 0
-3.05598 -4.10587 0
-0.0724969 -4.97194 0
12.8639 10.541 0
8.99111 10.6508 0
-13.0913 12.0293 0
-10.326 12.7397 0
-0.403555 3.55068 0
0.926145 3.62553 0
-1.91773 5.60462 0
-1.22076 3.88055 0
4.532 5.00204 0
4.95908 5.91613 0
0.392303 10.8452 0
0.173112 9.8526 0
-1.18083 7.83986 0
-2.42271 7.56139 0
6.00469 5.81175 0
5.25528 7.76815 0
4.2878 8.28889 0
4.3069 9.54267 0
2.32039 11.0431 0
2.31828 11.0417 0
-2.59705 11.0437 0
-4.12742 9.47749 0
-3.68063 8.74816 0
-4.61388 7.57765 0
1.23918 0.898632 0
-0.235153 -0.0698678 0
6.40214 1.90898 0
5.26924 0.390467 0
5.04681 2.8833 0
3.0386 3.73148 0
-9.17001 11.0319 0
-6.09582 10.8159 0
3.0361 3.73149 0
1.59612 4.44007 0
-9.52262 7.10172 0
-8.10086 6.48047 0
-0.975949 -2.02617 0
-1.44005 -4.70618 0
7.57708 33.4776 0
9.04689 35.0957 0
1.02069 -2.60275 0
1.16068 -1.1526 0
2.58424 8.27999 0
1.38121 7.24811 0
8.80279 10.1594 0
5.8017 9.89296 0
9.55953 21.3649 0
0.248734 12.5993 0
-2.86954 -1.1084 0
-3.6181 -3.85845 0
-4.46519 1.92757 0
-5.3697 0.764014 0
-5.77218 -2.70282 0
-4.67088 -0.26149 0
0.413014 7.75767 0
-0.553678 7.32231 0
9.43856 5.74206 0
7.80706 5.00035 0
5.42831 -0.875715 0
7.0954 -2.91519 0
1.47742 -5.07287 0
1.55602 -3.04652 0
-6.32197 0.896395 0
-7.93526 -0.972009 0
-5.49063 4.62875 0
-6.8143 3.41656 0
7.49355 1.76882 0
9.90634 0.0158733 0
-12.5882 6.93891 0
-9.54449 7.14205 0
13.0057 7.36301 0
10.9122 7.27774 0
-2.88218 3.23476 0
-3.80464 1.90632 0
-9.58177 1.22858 0
-6.80677 2.85322 0
-3.66641 6.45617 0
-4.4393 4.53169 0
-6.9431 6.65336 0
-6.52123 5.83036 0
8.42858 7.09347 0
8.66895 7.60444 0
-0.838405 12.4731 0
-0.693242 11.5775 0
12.8681 10.5502 0
10.3618 11.8546 0
10.2702 14.2748 0
2.12059 11.4266 0
8.12669 8.81736 0
9.44744 9.56552 0
-7.47808 8.15603 0
-7.82431 8.94255 0
-2.34391 14.6889 0
0.934707 13.8125 0
-10.2335 13.2815 0
-4.27787 12.6824 0
9.44641 9.56781 0
12.8723 9.95675 0
-10.9714 14.5685 0
-13.3866 15.0542 0
-12.8676 10.4378 0
-9.41459 10.6294 0
12.9889 18.802 0
10.4979 17.2597 0
8.66471 11.0991 0
6.55717 11.2649 0
-9.41451 10.6268 0
-7.50743 9.86634 0
2.55502 14.3415 0
4.36455 12.8292 0
-4.62483 11.2275 0
-3.80224 10.4649 0
5.15069 12.6066 0
4.22432 11.1045 0
13.2454 12.2932 0
10.5946 12.4504 0
-2.97472 14.3137 0
-4.80576 13.6527 0
-9.62653 29.6344 0
0.0930682 15.2651 0
-6.7333 11.4377 0
-4.70675 12.9929 0
-12.9431 11.1738 0
-9.66113 11.6978 0
6.52597 16.5564 0
8.53429 15.0076 0
-1.01258 14.0794 0
-0.631523 12.6882 0
-10.6229 18.9773 0
-13.4209 18.6787 0
5.68185 34.9941 0
2.49039 15.3035 0
-3.21377 16.734 0
-10.458 19.4045 0
-10.9497 13.7901 0
-13.3035 13.1344 0
-6.88232 15.1743 0
-6.37282 13.9739 0
-6.60806 12.0717 0
-7.49595 13.0946 0
13.4967 14.1543 0
11.015 14.8269 0
-10.9858 20.8731 0
-13.4404 21.736 0
6.32647 12.3007 0
5.15231 12.6047 0
10.4369 16.1974 0
8.58662 15.7272 0
4.18547 13.8275 0
6.996 16.1451 0
-2.13761 15.8644 0
-0.442461 16.1797 0
13.4474 23.7364 0
11.0264 23.6431 0
0.424925 15.2018 0
1.47936 15.9705 0
10.9111 25.7873 0
4.30039 15.9556 0
13.3585 13.2179 0
10.4227 13.7027 0
-8.69495 14.8098 0
-8.78069 13.9175 0
-9.56089 12.0046 0
-7.51331 12.7365 0
-10.2412 18.4498 0
-6.53197 16.7591 0
4.01422 36.2657 0
4.21604 37.9504 0
1.92014 13.6851 0
2.67732 12.2175 0
-4.08738 15.9395 0
-4.09522 14.984 0
-13.3371 17.6331 0
-10.5408 17.8349 0
-0.0193752 17.4964 0
-0.237249 17.3694 0
8.03659 13.3428 0
7.61972 14.1694 0
8.92859 11.6697 0
7.8772 12.9959 0
-11.1292 20.1312 0
-13.516 19.8224 0
-2.67842 16.6795 0
-1.70611 17.9407 0
1.73655 16.9276 0
3.6799 16.9682 0
6.60684 14.2854 0
6.38547 14.7247 0
-7.73893 18.3052 0
-7.50981 18.6166 0
-9.48656 16.1116 0
-6.76704 16.1141 0
4.26227 15.8662 0
4.9558 14.7709 0
-10.2151 22.7286 0
-3.93483 18.1458 0
13.4344 25.2459 0
11.5012 25.0716 0
-12.0021 30.4161 0
-10.4893 29.3424 0
9.02867 17.6726 0
8.00667 16.3557 0
12.8799 20.2468 0
9.92366 20.548 0
4.5297 18.2141 0
6.42629 19.1515 0
1.52084 19.1911 0
3.85095 18.6189 0
-0.51607 25.1298 0
-3.00673 23.8978 0
-2.9651 22.2114 0
-4.53658 20.0035 0
-6.52525 15.7278 0
-4.27782 14.8997 0
-9.64289 21.2797 0
-8.35516 19.8234 0
7.14932 24.1762 0
7.61286 21.1386 0
-13.2806 16.6438 0
-9.85508 16.7743 0
-9.83226 16.8198 0
-7.59885 17.5507 0
-0.0292579 19.3844 0
0.219968 19.0751 0
7.84625 32.7393 0
2.26315 22.311 0
11.2329 32.8087 0
9.96173 31.7491 0
-13.6117 24.6819 0
-11.3258 24.2771 0
-5.6339 17.0117 0
-5.36035 17.9744 0
8.59969 18.2759 0
7.39834 18.0647 0
1.62802 17.0887 0
2.17334 18.1514 0
10.712 16.771 0
13.4228 17.0331 0
12.8365 19.3226 0
9.02127 17.9417 0
-10.6012 24.9615 0
-4.48843 20.2071 0
-2.07218 18.8527 0
-3.57816 18.8654 0
3.71507 22.8585 0
4.46509 22.2834 0
-5.99362 18.7126 0
-5.72015 19.6534 0
4.55486 17.8953 0
6.53724 17.0506 0
-1.68257 21.862 0
-0.086291 23.1546 0
2.14786 28.4315 0
6.94804 31.2779 0
-4.02566 35.3683 0
-4.66946 36.7315 0
0.152514 35.8062 0
-1.88574 24.8199 0
-13.5679 22.7469 0
-11.2583 23.3994 0
-1.73264 19.3393 0
-3.53406 20.6259 0
-7.24046 21.7112 0
-5.7657 21.6256 0
9.60926 29.4564 0
7.64628 30.2863 0
5.36769 20.9074 0
6.98372 21.6292 0
10.9235 23.7759 0
8.37936 23.3977 0
13.1757 21.8961 0
10.8472 22.8295 0
-10.6399 28.1007 0
-3.5545 21.8217 0
12.3009 30.7014 0
10.5241 30.3646 0
2.61254 20.3246 0
3.91406 19.6066 0
-13.3716 26.9708 0
-11.2797 26.872 0
-1.22898 26.969 0
3.88851 23.9751 0
0.433595 20.5794 0
2.0671 21.0615 0
-8.32109 19.939 0
-6.94705 20.5347 0
9.13473 19.4683 0
7.50816 19.9657 0
-1.31171 21.055 0
-2.04985 20.0925 0
12.8296 19.3931 0
9.13629 19.4664 0
-2.06003 24.2536 0
-1.00411 23.0172 0
-5.52274 22.2219 0
-4.58899 22.4943 0
-3.97073 24.4644 0
-4.53365 24.0988 0
-13.4416 21.7459 0
-10.2562 22.4091 0
5.07255 24.4204 0
6.00122 23.6841 0
0.120797 29.9348 0
1.7222 35.9055 0
-7.7722 22.8723 0
-7.10932 23.871 0
0.827992 36.3112 0
0.666915 38.0881 0
-6.21788 29.7584 0
-4.90927 30.8258 0
9.81235 22.1857 0
8.39543 22.8404 0
13.2921 26.75 0
11.1563 26.4578 0
5.90796 22.9104 0
7.03127 22.1042 0
2.60643 20.6948 0
4.39404 21.597 0
3.17779 24.561 0
3.56573 28.1094 0
5.31158 20.2965 0
6.4693 19.455 0
1.75029 22.7633 0
2.04099 24.1553 0
12.994 21.0664 0
9.90164 21.7543 0
-2.16304 33.1698 0
-1.64909 31.1318 0
-8.70072 31.6463 0
-9.92772 32.9493 0
0.0216928 21.0905 0
0.533554 22.4465 0
-6.59997 23.8559 0
-5.94997 24.6479 0
-9.50753 21.724 0
-7.24083 21.7087 0
6.7435 26.6025 0
8.75074 25.6178 0
-12.8071 28.9561 0
-10.9938 27.9488 0
-6.12442 25.4599 0
-5.22054 26.2965 0
3.05219 32.5511 0
5.93536 31.1536 0
-6.66482 32.4492 0
-5.56981 30.786 0
6.41156 27.2277 0
4.60066 27.2202 0
2.75292 27.8677 0
1.6434 26.1702 0
-4.1385 25.9597 0
-4.0329 26.0483 0
5.47954 35.7203 0
6.42641 37.1233 0
0.278784 24.3284 0
1.43294 24.6822 0
-8.21444 25.1361 0
-8.14031 25.7591 0
2.77994 33.9596 0
1.89842 34.3115 0
-2.57401 25.778 0
-2.00778 26.877 0
9.05171 31.8685 0
8.3189 30.3866 0
-2.36933 35.8333 0
-2.84531 37.4402 0
-2.96859 35.2066 0
-2.57622 33.3261 0
9.25077 25.245 0
9.28592 24.0173 0
-7.57103 28.1197 0
-7.3751 26.1118 0
9.67231 29.0305 0
8.75648 27.0514 0
-0.262669 33.6638 0
0.488325 31.5243 0
-9.24963 23.2909 0
-9.36472 24.5282 0
10.0777 34.1141 0
8.72442 32.6228 0
13.0926 28.0645 0
10.8758 27.8308 0
7.00527 33.6228 0
6.00903 32.832 0
-0.923579 30.009 0
-0.730555 28.0258 0
-5.21713 34.191 0
-6.28767 35.8165 0
3.38839 25.8255 0
2.50458 26.5376 0
5.34431 29.5298 0
5.37208 27.6038 0
5.2823 25.5309 0
4.46095 26.2331 0
-4.15106 29.781 0
-3.15269 29.9061 0
7.27641 25.0567 0
6.44752 25.8528 0
3.99546 29.3387 0
3.83272 32.3345 0
-7.68209 31.7906 0
-6.74111 29.8467 0
6.71107 34.7286 0
7.88615 36.0971 0
-5.49535 28.4072 0
-4.68823 28.4814 0
-4.66203 34.2406 0
-3.38007 32.8839 0
2.2889 31.8632 0
1.39318 32.1951 0
-11.0539 31.716 0
-9.46467 30.3491 0
-8.70381 34.0408 0
-7.41283 32.379 0
0.36087 34.116 0
[...]
CELL_DATA 885
SCALARS current_Length float
LOOKUP_TABLE default
0.881314
1.02489
1.48059
1.47123
1.65238
1.46852
0.531478
1.02803
1.77417
1.10118
1.02688
1.22195
1.76693
1.48512
0.478933
0.169757
1.73696
1.0226
0.0357591
0.597403
0.563083
0.821806
0.290709
0.701661
1.2935
1.08457
0.780711
1.05468
0.921393
2.00795
0.402808
0.582013
1.88528
0.504435
1.33197
1.14426
0.772693
0.830536
1.07184
0.956637
1.32496
0.860885
2.02694
0.00249743
1.30463
1.58886
1.4469
0.951757
0.76227
0.981482
0.735105
0.795217
1.19533
1.57043
1.81544
1.00272
0.985292
1.56079
1.19877
1.44971
1.09708
0.63393
0.708809
0.517755
1.09014
0.850684
1.13992
2.1619
1.71536
1.49133
0.80526
1.13073
1.5002
0.894348
1.00242
0.778906
1.09335
1.73419
1.00631
1.14074
0.870045
1.87287
0.346475
0.655936
0.55618
0.563393
1.02127
0.00249997
1.41126
0.00248968
1.28271
1.74306
0.777404
0.712227
1.19535
1.66363
0.00251758
1.62316
0.300773
0.707342
1.32049
1.09331
0.564589
1.46897
0.221458
0.591218
1.39352
0.390689
0.852132
1.56743
1.01196
1.17264
1.0215
1.24405
1.03979
1.6541
0.766242
0.874232
1.36491
0.512335
0.589954
0.137256
1.18088
0.878427
0.635035
2.12852
0.700906
1.34702
2.28142
0.0242865
1.08823
1.06336
2.07218
1.32132
2.5756
0.92649
2.70534
1.10699
2.26631
2.28355
1.6392
3.14219
0.185254
3.23813
1.28281
2.10251
2.192
0.811384
2.18151
2.06516
2.29818
0.584319
2.51794
3.37768
1.12521
2.55041
1.29802
2.44312
1.17952
2.0454
2.06542
1.39339
2.74568
0.94146
3.0341
0.708936
2.57515
2.65078
1.75391
2.82288
0.61416
2.7651
1.39314
2.06123
1.5532
1.93283
2.08516
1.04895
2.12768
1.02135
0.0100661
0.554512
3.87435
0.868297
1.06097
2.85512
1.48854
1.66679
1.33181
0.322018
1.08767
1.85962
1.85607
1.05186
1.00894
1.30943
1.20601
1.01653
1.59051
1.34554
1.27272
0.94017
1.08475
2.09502
1.09872
1.53403
1.25393
0.432445
1.93598
0.00250242
1.75706
1.47776
1.33697
0.855304
1.61668
1.49702
0.642092
1.42678
1.76399
1.6667
1.65428
1.89456
0.750053
1.12096
2.17998
0.471022
0.670729
2.47026
0.0024989
1.34579
1.60488
1.4285
1.8051
1.55157
0.671387
1.72383
2.7199
0.890378
1.82132
2.18602
0.695345
1.00556
1.45689
1.22072
1.0941
1.58494
0.526252
0.422437
3.0129
0.518355
0.884732
1.95978
0.613603
1.70216
2.85011
1.08574
0.961422
1.47377
0.743743
0.972891
2.67824
1.60939
0.813128
1.0602
0.157949
1.1494
1.79218
0.722872
1.73901
2.63413
2.0878
1.12778
2.02788
0.757057
1.85938
2.46853
1.16408
0.92872
1.79486
0.300503
1.04867
2.98234
1.39974
0.0458742
3.05046
1.49278
0.701343
2.09529
1.02284
0.660894
1.61731
0.892721
0.45554
3.21561
0.991613
1.0558
2.07388
1.1706
2.01084
0.924824
1.59257
1.79157
0.564686
1.98709
1.52884
0.907292
1.78335
0.639665
2.82544
0.927141
2.20887
1.88421
1.32861
1.61088
1.51794
1.17732
1.25976
0.859359
1.34517
1.39372
0.337854
0.549662
1.49566
0.667226
0.00251359
1.10515
3.44789
1.34496
1.04063
2.46357
1.03363
0.00252049
3.45832
0.542414
1.52616
2.92973
0.628649
1.0612
2.11405
1.45203
0.976625
2.05312
0.913189
1.7947
1.70956
1.52747
1.03962
1.12167
0.817052
1.90492
1.764
0.931618
0.976737
2.65542
0.733966
1.59963
1.30573
0.651077
1.62124
1.20731
0.890454
0.529484
0.64625
0.739876
0.827437
3.32356
2.30523
2.2223
0.721465
1.46421
0.298452
1.44246
0.457896
1.14767
2.81393
1.18903
0.964101
1.69711
0.538117
0.98927
1.47339
0.778708
1.9216
2.44337
1.84892
1.52566
1.3041
2.11272
1.42635
0.358537
1.85148
0.738751
2.57124
0.910835
1.67014
2.60179
1.69943
0.00251143
1.21287
0.533604
0.624535
1.9091
1.01422
0.855208
1.43042
1.19347
1.05978
1.72421
1.50962
0.167947
2.42286
1.47982
1.21125
1.30492
0.713945
0.0971975
1.74667
0.946552
0.592146
2.97565
1.37163
1.5859
0.896391
0.322763
1.12317
2.17446
0.684031
0.686526
2.50649
1.56353
2.36003
1.69672
0.993634
0.967218
1.65143
0.932922
0.201127
0.955501
0.990892
1.23797
2.80348
1.26479
1.32928
0.252202
2.07272
1.24063
0.925756
1.44504
0.381753
1.6924
0.755657
1.91502
2.40666
0.978225
1.57604
1.59244
0.991016
1.18763
1.94377
1.0195
1.54611
0.491921
0.767337
1.58522
0.386655
0.735477
0.455726
2.71952
1.85909
1.2179
1.29644
0.322139
1.51922
0.803201
1.51079
0.927641
1.94099
1.66726
1.25079
1.85513
0.269226
1.03238
1.6669
0.827549
0.894366
2.97151
0.319759
1.33039
2.11561
1.30603
0.790293
1.22748
1.43459
1.11817
1.40427
1.68685
1.11733
1.04218
0.658617
1.35417
2.39512
1.40313
2.14416
1.88275
1.24911
1.15763
1.55014
0.553382
0.758274
3.42799
0.0508614
1.32852
2.34999
0.982728
1.59673
0.397169
0.78585
1.12868
1.71538
1.74314
0.917808
1.65484
1.93545
0.880251
2.32147
1.88182
1.43578
1.00084
1.30582
1.45805
1.21976
0.194237
1.74154
1.19444
0.636093
1.03479
2.72348
0.0707952
0.537987
4.05748
0.99674
0.209231
1.3102
0.593385
1.4879
1.50604
1.55174
0.690069
0.94517
0.972584
1.23427
0.979758
1.27478
0.494399
2.15485
1.33387
0.941056
0.928055
1.04701
0.70779
0.847993
0.843399
1.95699
1.50763
0.867114
0.592511
1.70293
1.00894
1.24024
2.40002
1.70397
0.706638
0.817292
0.00250821
1.90878
1.47724
1.28909
1.21275
1.59066
0.613483
0.797803
1.7699
1.41863
1.45567
1.65532
1.86021
0.833095
2.50859
0.385062
1.19597
1.60538
2.36246
1.49442
1.80836
1.57379
0.989698
1.48645
1.21666
1.15954
2.09428
1.36908
1.12993
1.50279
1.28153
0.652193
1.70315
0.120511
1.51062
1.49761
1.33718
1.17757
1.70092
0.888129
1.57712
1.21293
0.855225
0.00250138
3.69405
1.01138
1.33966
1.62599
0.643869
1.23396
0.972691
0.530628
0.856449
0.67122
0.010047
1.01475
3.25368
1.26503
0.779275
1.18518
1.23186
0.700316
1.12636
1.27709
0.509566
1.19864
0.98195
1.74026
1.78418
1.53223
1.29087
0.661739
1.21878
0.557495
1.56087
1.32954
0.97563
2.15564
1.57324
0.477386
1.38265
0.370165
1.19308
2.00237
0.92111
1.02028
1.28192
1.55854
0.306518
1.43124
0.683815
1.20702
1.42206
0.849354
0.440593
3.16791
0.441741
1.07057
1.72068
0.974869
1.53225
1.78982
0.6564
1.2573
1.44943
1.95716
1.51903
1.02456
0.464455
1.21021
2.26675
1.13013
0.889677
1.27643
2.06394
1.11412
2.07426
0.830573
1.13326
1.23164
0.544601
1.72809
0.230046
0.751302
1.2149
1.99136
0.832463
1.36447
1.10544
0.826997
1.441
0.936278
1.50469
1.4837
0.137865
0.75389
1.78437
1.69262
1.22931
0.804588
1.20716
1.67986
1.41038
0.627395
1.25644
1.60363
0.949167
1.1797
0.784215
1.23626
0.822293
0.680053
1.65318
0.988857
1.7568
1.67597
1.06937
0.917451
1.92096
0.623706
1.09807
1.22821
0.783739
0.842556
1.50043
0.430575
2.06241
1.13013
0.985938
1.02357
1.7203
1.53559
1.30104
1.24264
1.42344
0.885856
2.01379
1.93097
0.977294
2.22906
1.06291
0.810022
1.27195
1.33678
1.16844
1.02785
1.29479
1.85899
1.94638
1.14739
1.3531
1.135
1.30223
0.861537
1.63462
1.20885
0.99698
1.08056
1.40629
1.11461
1.00617
1.5775
0.806087
1.14924
1.36231
1.21284
0.919427
1.02881
0.827056
2.1597
1.14422
1.53296
1.80376
1.5685
1.03251
0.810525
0.557321
0.907871
1.8666
1.02756
0.900984
0.955233
1.60896
0.732777
2.09619
1.63992
0.647082
2.10434
0.770279
1.58418
0.893028
1.86209
1.46883
0.348533
1.27032
1.46051
0.825724
0.947518
1.32066
1.54922
0.763155
0.723064
1.24248
0.923674
1.17794
1.3244
0.854521
0.716047
1.47384
1.8199
0.914594
1.72773
1.86801
1.28109
1.24
0.675522
0.271577
1.63785
0.476326
1.06263
1.63187
0.841873
1.01057
1.29631
2.05676
1.83326
1.04912
0.520111
0.851999
1.2335
1.10076
1.2808
1.06739
1.08488
0.610291
2.69093
0.965728
0.412652
1.61526
1.12904
1.81844
1.75266
0.823169
0.903784
2.3548
0.687097
1.08039
1.86875
1.31965
1.60497
0.905218
1.66921
1.41817
1.14449
1.51882
1.19525
1.51888
0.480698
1.22089
2.00204
0.784127
1.51111
1.67936
1.46715
0.863274
2.10837
3.29271
3.27915
3.27315
166
232
3.25677

SCALARS edge_force float
LOOKUP_TABLE default
0.5
0.5
0.5
0.5
0.5
0.5
0.5
0.5
0.5
0.5
0.5
0.5
0.5
0.5
0.5
0.5
0.5
0.5
0.5
0.5
0.5
0.5
0.5
0.5
0.5
0.5
0.5
0.5
0.5
0.5
0.5
0.5
0.5
0.5
0.5
0.5
0.5
0.5
0.5
0.5
0.5
0.5
0.5
0.5
0.5
0.5
0.5
0.5
0.5
0.5
0.5
0.5
0.5
0.5
0.5
0.5
0.5
0.5
0.5
0.5
0.5
0.5
0.5
0.5
0.5
0.5
0.5
0.5
0.5
0.5
0.5
0.5
0.5
0.5
0.5
0.5
0.5
0.5
0.5
0.5
0.5
0.5
0.5
0.5
0.5
0.5
0.5
0.5
0.5
0.5
0.5
0.5
0.5
0.5
0.5
0.5
0.5
0.5
0.5
0.5
0.5
0.5
0.5
0.5
0.5
0.5
0.5
0.5
0.5
0.5
0.5
0.5
0.5
0.5
0.5
0.5
0.5
0.5
0.5
0.5
0.5
0.5
0.5
0.5
0.5
0.5
0.5
0.5
0.5
0.5
0.5
0.5
0.5
2
0.5
2
0.5
2
0.5
0.5
2
0.5
2
0.5
2
0.5
0.5
2
0.5
2
0.5
2
0.5
0.5
2
0.5
2
0.5
2
0.5
0.5
2
0.5
2
0.5
2
0.5
0.5
2
0.5
2
0.5
2
0.5
2
2
2
2
2
2
2
0.5
0.5
2
0.5
0.5
0.5
0.5
0.5
0.5
0.5
0.5
0.5
0.5
0.5
0.5
0.5
0.5
0.5
0.5
0.5
0.5
0.5
0.5
0.5
0.5
0.5
0.5
0.5
0.5
0.5
0.5
0.5
0.5
0.5
0.5
0.5
0.5
0.5
0.5
0.5
0.5
0.5
0.5
0.5
0.5
0.5
0.5
0.5
0.5
0.5
0.5
0.5
0.5
0.5
2
0.5
0.5
2
0.5
0.5
0.5
0.5
0.5
0.5
0.5
0.5
0.5
0.5
0.5
0.5
0.5
0.5
2
0.5
0.5
0.5
0.5
2
0.5
0.5
0.5
0.5
0.5
0.5
0.5
0.5
0.5
2
0.5
2
0.5
0.5
0.5
2
0.5
0.5
0.5
0.5
0.5
2
0.5
2
0.5
0.5
2
0.5
0.5
0.5
0.5
0.5
2
0.5
0.5
0.5
0.5
0.5
0.5
0.5
0.5
0.5
0.5
0.5
0.5
0.5
0.5
2
0.5
0.5
0.5
0.5
0.5
0.5
0.5
0.5
0.5
0.5
0.5
0.5
0.5
0.5
0.5
0.5
0.5
0.5
2
0.5
0.5
2
0.5
2
0.5
0.5
2
0.5
0.5
0.5
0.5
0.5
0.5
0.5
0.5
0.5
0.5
0.5
0.5
0.5
0.5
0.5
0.5
0.5
2
0.5
0.5
0.5
0.5
0.5
0.5
0.5
0.5
0.5
0.5
0.5
2
0.5
0.5
0.5
0.5
0.5
0.5
0.5
0.5
0.5
2
0.5
0.5
0.5
0.5
0.5
0.5
0.5
0.5
2
0.5
0.5
0.5
0.5
0.5
0.5
0.5
2
0.5
0.5
0.5
2
0.5
0.5
0.5
0.5
0.5
0.5
0.5
0.5
0.5
0.5
0.5
0.5
0.5
2
0.5
0.5
0.5
0.5
0.5
0.5
0.5
0.5
2
0.5
0.5
0.5
0.5
0.5
0.5
0.5
0.5
0.5
0.5
0.5
0.5
2
0.5
0.5
0.5
0.5
0.5
0.5
0.5
2
0.5
0.5
0.5
0.5
0.5
0.5
0.5
0.5
0.5
0.5
0.5
0.5
2
0.5
0.5
0.5
0.5
0.5
0.5
0.5
0.5
0.5
0.5
0.5
0.5
0.5
0.5
0.5
0.5
0.5
0.5
0.5
0.5
0.5
0.5
2
0.5
0.5
2
0.5
0.5
0.5
0.5
0.5
2
0.5
0.5
0.5
0.5
0.5
0.5
0.5
0.5
0.5
0.5
0.5
0.5
0.5
0.5
0.5
0.5
0.5
0.5
0.5
0.5
0.5
0.5
0.5
2
0.5
0.5
0.5
0.5
0.5
0.5
0.5
0.5
0.5
0.5
0.5
2
0.5
0.5
2
0.5
0.5
0.5
0.5
0.5
0.5
0.5
0.5
0.5
0.5
0.5
0.5
2
0.5
2
0.5
0.5
0.5
0.5
0.5
0.5
0.5
0.5
0.5
0.5
0.5
0.5
0.5
0.5
0.5
0.5
0.5
0.5
0.5
0.5
0.5
0.5
0.5
0.5
2
0.5
0.5
0.5
0.5
2
0.5
0.5
0.5
0.5
0.5
0.5
0.5
0.5
0.5
0.5
0.5
0.5
0.5
0.5
0.5
0.5
0.5
2
0.5
0.5
0.5
0.5
0.5
2
0.5
0.5
0.5
0.5
0.5
2
0.5
0.5
0.5
0.5
0.5
0.5
0.5
0.5
0.5
0.5
0.5
0.5
0.5
0.5
0.5
0.5
0.5
2
0.5
0.5
0.5
0.5
0.5
0.5
0.5
0.5
0.5
0.5
0.5
2
0.5
0.5
0.5
0.5
0.5
0.5
0.5
0.5
0.5
0.5
0.5
0.5
2
0.5
0.5
0.5
0.5
0.5
0.5
0.5
2
0.5
0.5
0.5
0.5
0.5
0.5
0.5
0.5
0.5
0.5
0.5
0.5
0.5
0.5
0.5
0.5
0.5
2
0.5
0.5
0.5
0.5
0.5
0.5
2
0.5
0.5
0.5
0.5
0.5
0.5
0.5
0.5
0.5
0.5
0.5
0.5
0.5
2
0.5
0.5
0.5
0.5
0.5
0.5
0.5
0.5
0.5
0.5
0.5
0.5
0.5
0.5
0.5
0.5
0.5
0.5
0.5
0.5
0.5
2
0.5
0.5
0.5
0.5
0.5
0.5
0.5
0.5
0.5
0.5
0.5
0.5
0.5
0.5
0.5
0.5
0.5
2
0.5
0.5
0.5
0.5
0.5
0.5
0.5
0.5
0.5
0.5
0.5
0.5
0.5
0.5
0.5
0.5
0.5
0.5
0.5
2
0.5
0.5
2
0.5
0.5
0.5
0.5
0.5
0.5
0.5
0.5
0.5
2
0.5
0.5
0.5
0.5
0.5
0.5
0.5
0.5
0.5
0.5
0.5
0.5
0.5
0.5
0.5
0.5
0.5
0.5
0.5
0.5
0.5
0.5
0.5
2
0.5
0.5
0.5
0.5
0.5
0.5
0.5
0.5
0.5
0.5
2
0.5
0.5
2
0.5
0.5
0.5
0.5
0.5
0.5
0.5
0.5
0.5
0.5
0.5
0.5
0.5
0.5
0.5
0.5
0.5
0.5
0.5
0.5
0.5
0.5
0.5
2
0.5
0.5
0.5
0.5
0.5
0.5
0.5
0.5
0.5
0.5
0.5
0.5
0.5
0.5
0.5
0.5
0.5
0.5
0.5
0.5
0.5
0.5
0.5
2
0.5
0.5
0.5
0.5
0.5
0.5
2
0.5
2
0.5
0.5
0.5
0.5
0.5
0.5
0.5
0.5
0.5
0.5
0.5
0.5
0.5
0.5
0.5
0.5
0.5
0.5
0.5
0.5
2
0.5
0.5
0
0
0
0
0
0
