# vtk DataFile Version 3.0
2D-vertex
ASCII
DATASET UNSTRUCTURED_GRID

POINTS 1568 float
0.643713 -5.61198 0
3.09664 -5.36333 0
3.4691 -4.41054 0
2.42708 -3.36064 0
0.152447 -3.25017 0
-0.543394 -4.74605 0
4.00075 -4.36736 0
4.55942 -3.50281 0
3.60258 -2.00775 0
2.55862 -2.34056 0
1.3627 -1.10329 0
-0.335591 -0.652338 0
-1.07994 -1.93659 0
-1.23738 -1.97785 0
-1.72985 -3.64743 0
-1.20809 -4.5231 0
5.13356 -3.64911 0
5.93322 -2.75133 0
4.07131 -1.25491 0
3.79994 -1.32726 0
2.90729 -0.385149 0
1.84003 -0.490702 0
1.12606 3.12386 0
0.275303 3.08533 0
-0.51681 1.19495 0
-1.71253 0.26772 0
-1.6022 -1.63168 0
-2.89136 -1.94075 0
-3.3874 -2.97486 0
-3.07604 -3.68076 0
7.0019 -2.71815 0
7.61208 -1.97652 0
7.406 -0.669811 0
5.16944 0.44857 0
5.6269 1.03793 0
3.25431 2.32343 0
2.46416 3.5983 0
1.57842 3.73925 0
0.608515 6.92945 0
-0.968273 6.94939 0
-0.610236 3.88201 0
-2.09427 2.91946 0
-3.12444 1.35954 0
-4.08367 1.38138 0
-4.80149 -0.0323026 0
-6.20758 -0.356961 0
-6.4796 -1.41939 0
-4.94193 -2.75909 0
7.81902 -0.026014 0
7.45495 0.999085 0
6.69559 1.39918 0
5.90756 3.44432 0
3.53382 4.58486 0
3.44338 5.4631 0
1.96654 7.06941 0
2.48727 7.78236 0
-1.94268 8.33056 0
-1.83015 7.38999 0
-3.06161 6.02673 0
-2.70578 3.87354 0
-4.33853 4.16187 0
-5.70757 2.8319 0
-7.60847 1.32564 0
-7.45932 0.788558 0
8.36111 1.43539 0
8.36104 1.43789 0
6.82119 3.44801 0
7.2206 4.66666 0
5.9108 5.90314 0
6.09999 6.59723 0
5.26065 7.6003 0
4.9569 8.13036 0
-2.65398 10.6456 0
-2.92675 10.2717 0
-6.06643 7.29429 0
-5.39326 6.51572 0
-6.10881 5.13093 0
-6.0233 4.96503 0
-8.59633 1.83222 0
-8.44025 1.47333 0
9.8792 1.79275 0
10.1672 2.76451 0
9.33894 3.72341 0
10.4837 4.18526 0
10.125 5.70584 0
10.2878 6.42738 0
9.27735 11.0341 0
10.1715 13.1466 0
-9.55016 12.3212 0
-9.55001 12.3187 0
-10.0326 6.43301 0
-9.73476 5.90869 0
-10.0745 5.27202 0
-9.32322 4.17867 0
-10.1217 2.91409 0
-9.65005 1.92991 0
4.05777 -7.19278 0
5.25051 -6.60959 0
6.07996 -6.17715 0
8.38718 -4.50587 0
9.63366 -3.02516 0
10.8868 -0.639782 0
10.9785 -0.457195 0
11.642 0.650044 0
12.3492 2.61317 0
12.5271 3.41688 0
12.5419 6.95568 0
12.73 13.7172 0
-13.1269 12.8111 0
-12.6079 6.38694 0
-12.5193 5.09721 0
-12.1261 2.54274 0
-11.2317 0.60768 0
-10.355 -0.485579 0
-9.73358 -1.20593 0
-8.79158 -2.52744 0
-6.80925 -4.62649 0
-4.69492 -5.98035 0
-2.56272 -6.92225 0
0.465387 -7.65742 0
12.3289 8.44708 0
8.23973 8.45869 0
-12.8737 8.88867 0
-9.97745 9.69728 0
-0.257512 0.861677 0
1.03621 0.991663 0
-1.84092 2.893 0
-1.05032 1.17523 0
4.5063 2.55943 0
4.88175 3.49157 0
0.277795 8.54903 0
0.0755931 7.41107 0
-1.14446 5.22858 0
-2.31813 4.91226 0
5.90652 3.44658 0
5.00616 5.39963 0
4.01393 5.87248 0
3.98473 7.25255 0
1.92307 8.82615 0
1.92116 8.82454 0
-2.40297 8.531 0
-3.96612 6.7136 0
-3.51562 6.03382 0
-4.47155 4.74929 0
1.49788 -1.73972 0
0.0741708 -2.77495 0
6.57651 -0.452174 0
5.53128 -2.02821 0
5.16737 0.449977 0
3.1233 1.20112 0
-8.89624 8.08108 0
-5.88393 7.99567 0
3.1208 1.20111 0
1.67194 1.8394 0
-9.3315 4.11232 0
-7.91638 3.51511 0
-0.575561 -4.76346 0
-0.919788 -7.45273 0
14.4996 28.3149 0
17.5801 27.1494 0
1.44885 -5.24589 0
1.51861 -3.79248 0
2.4377 5.81658 0
1.29192 4.76789 0
8.08462 7.9877 0
5.26072 7.60282 0
7.93296 18.8479 0
-0.267997 10.5367 0
-2.50725 -3.92616 0
-3.14672 -6.69323 0
-4.21254 -0.944325 0
-5.07812 -2.13891 0
-5.35518 -5.61278 0
-4.34043 -3.14431 0
0.360815 5.21547 0
-0.536717 4.76622 0
9.31289 3.57412 0
7.7537 2.72613 0
5.76375 -3.28901 0
7.53913 -5.22692 0
2.02507 -7.68477 0
2.0042 -5.66236 0
-6.03036 -2.03694 0
-7.58286 -3.9446 0
-5.29088 1.7377 0
-6.59502 0.474796 0
7.66897 -0.527996 0
10.1793 -2.11961 0
-12.3864 3.933 0
-9.34645 4.13967 0
12.7222 5.47472 0
10.6449 5.20886 0
-2.68066 0.429462 0
-3.56161 -0.94239 0
-9.29603 -1.77708 0
-6.5729 -0.0920255 0
-3.52912 3.66704 0
-4.25441 1.67346 0
-6.76235 3.7117 0
-6.32959 2.91329 0
8.17686 4.86849 0
8.36569 5.36146 0
-1.02012 10.3666 0
-0.754188 9.19476 0
12.333 8.45628 0
9.62306 9.63714 0
9.39733 11.913 0
1.57639 9.42955 0
7.70699 6.6148 0
8.88535 7.36367 0
-7.25092 5.22088 0
-7.59736 5.97455 0
-2.45017 12.7099 0
0.452416 11.8766 0
-9.9079 10.1987 0
-4.1193 10.0935 0
8.88392 7.36573 0
12.3685 7.9859 0
-10.6738 11.3596 0
-13.2022 11.8283 0
-12.6586 7.38216 0
-9.16496 7.63286 0
12.0187 16.4375 0
9.50423 14.601 0
7.88897 8.90158 0
5.75521 9.01862 0
-9.16502 7.63034 0
-7.28806 6.94612 0
1.84261 12.4272 0
3.61625 10.7889 0
-4.40504 8.47888 0
-3.64454 7.84335 0
4.31044 10.5555 0
3.46335 8.96317 0
12.6054 10.1568 0
9.8077 10.1825 0
-3.06294 12.2708 0
-4.53902 11.065 0
-13.406 24.2112 0
-0.257781 13.5429 0
-6.46961 8.53508 0
-4.40516 10.2879 0
-12.7337 8.10854 0
-9.34458 8.67243 0
5.18611 14.7062 0
7.48382 12.6891 0
-1.42658 12.3011 0
-0.860534 10.5658 0
-10.1081 15.6022 0
-13.394 14.5962 0
18.2837 32.4675 0
1.73327 13.5719 0
-3.05404 15.065 0
-10.0462 16.0255 0
-10.6393 10.6806 0
-13.0911 9.93404 0
-6.50566 12.3432 0
-5.94971 11.2601 0
-6.34078 9.30383 0
-7.12067 10.229 0
12.7638 11.8842 0
10.1513 12.5009 0
-10.9228 17.0664 0
-13.9746 16.9416 0
5.5114 10.1324 0
4.32932 10.4894 0
9.48664 13.7956 0
7.51583 13.2498 0
3.4056 11.9825 0
5.91129 14.0107 0
-2.27077 14.2881 0
-0.861822 14.5957 0
13.2931 18.3538 0
10.434 19.6182 0
-0.192718 13.5299 0
0.682034 14.2208 0
11.1767 21.3373 0
3.26514 14.1471 0
12.6685 11.003 0
9.54944 11.4049 0
-8.35146 11.8299 0
-8.37969 10.9503 0
-9.2365 9.02241 0
-7.12579 9.84169 0
-9.72577 15.2487 0
-6.05724 14.2219 0
20.5939 36.2207 0
22.7583 36.1848 0
1.26728 11.7903 0
2.11622 10.243 0
-3.993 13.9585 0
-3.85766 12.649 0
-13.2305 13.8643 0
-9.93427 14.5417 0
-0.689241 16.2402 0
-0.691344 16.2388 0
7.12131 11.0384 0
6.66104 11.9572 0
8.10797 9.40902 0
7.00489 10.7789 0
-10.8607 16.5278 0
-13.6157 15.3508 0
-2.85554 15.0675 0
-1.85934 16.5806 0
0.975599 15.4296 0
2.4534 15.4387 0
5.63684 12.104 0
5.3097 12.7835 0
-7.25339 15.5206 0
-6.9942 16.0576 0
-8.95255 13.1051 0
-6.27938 13.3166 0
3.24826 14.1016 0
4.0875 12.8345 0
-10.244 19.0751 0
-3.92151 16.2907 0
13.7802 19.2399 0
11.2739 20.4763 0
-16.5053 23.0998 0
-13.9129 23.3447 0
7.5235 15.0329 0
6.7589 14.1057 0
12.0067 16.5222 0
8.04552 17.8889 0
3.12783 16.8029 0
4.82328 17.4062 0
0.512207 18.3159 0
2.52026 17.2631 0
-1.1125 24.7229 0
-3.69881 23.1345 0
-3.17703 21.4391 0
-4.40499 18.2706 0
-6.10785 13.0793 0
-4.05246 12.5299 0
-9.46463 18.0079 0
-7.97468 16.9585 0
6.6848 22.2145 0
6.08662 19.2213 0
-13.1318 13.1668 0
-9.26672 13.5775 0
-9.204 13.7354 0
-6.9993 14.74 0
-0.683197 18.608 0
-0.423792 18.2602 0
14.037 27.7174 0
1.67729 22.012 0
16.5005 24.0637 0
14.2779 24.7541 0
-14.9393 18.7277 0
-12.0973 19.5847 0
-5.27286 14.5958 0
-5.11059 15.9667 0
6.92003 15.9395 0
5.81166 15.9362 0
0.675961 15.9151 0
1.28219 17.0048 0
9.68804 14.2565 0
12.5635 14.7037 0
12.0041 16.4895 0
7.51289 15.3782 0
-11.7569 20.602 0
-4.38813 18.7695 0
-2.4191 17.6678 0
-3.527 17.523 0
2.95494 22.2754 0
3.5621 21.5378 0
-5.64008 16.4168 0
-5.53229 17.6734 0
3.1457 16.1615 0
5.19013 15.2982 0
-2.07047 21.3612 0
-0.575816 22.8557 0
1.88673 27.9764 0
11.7457 28.2274 0
-19.3511 38.2489 0
-20.9253 37.4959 0
-19.7979 49.6193 0
-2.66671 24.2363 0
-14.0807 17.1336 0
-11.8847 19.2504 0
-1.9483 18.5316 0
-3.44856 19.4779 0
-7.16844 19.2055 0
-5.71676 19.6242 0
12.2495 24.1538 0
11.0828 27.3802 0
4.03798 19.742 0
5.54155 19.9981 0
10.3916 19.7818 0
7.44461 20.9296 0
12.2593 16.8898 0
10.2347 19.3875 0
-13.4803 22.5932 0
-3.78857 20.7526 0
15.5397 22.3461 0
13.8151 24.0657 0
1.59065 19.3366 0
2.74472 18.5658 0
-15.6301 20.1345 0
-13.503 21.5203 0
-1.94882 26.407 0
3.4805 23.5788 0
-0.063941 20.144 0
1.26527 20.4599 0
-7.96361 17.141 0
-6.61921 18.1356 0
7.16212 17.1356 0
5.64507 18.0166 0
-1.57835 20.5594 0
-2.3522 19.2838 0
11.9999 16.5016 0
7.32754 16.6434 0
-2.75457 23.7531 0
-1.52152 22.6358 0
-5.66441 20.3372 0
-4.70746 21.0132 0
-4.51141 23.2768 0
-5.14958 22.3597 0
-13.9806 16.9497 0
-10.1478 18.6527 0
4.61442 23.5614 0
5.21012 22.286 0
-0.333607 29.1308 0
18.5717 59.0126 0
-7.94373 20.1 0
-7.67638 21.2671 0
7.32339 68.1872 0
7.37879 69.7415 0
-10.095 26.153 0
-8.17766 28.7477 0
8.5502 19.2538 0
7.3006 20.6018 0
14.2511 20.0662 0
11.5902 21.6068 0
4.8701 21.6784 0
5.73051 20.4256 0
1.65973 20.1128 0
3.24016 20.5944 0
2.89156 24.2448 0
4.91566 27.9241 0
3.81162 18.9286 0
4.94051 17.8186 0
1.24931 22.4576 0
1.60353 23.8538 0
12.0409 16.5965 0
8.52644 19.1395 0
-7.02655 34.5652 0
-4.77233 30.8259 0
-13.9443 25.6177 0
-16.8501 25.0132 0
-0.481459 20.6581 0
0.061646 22.1758 0
-7.13294 21.4555 0
-6.823 22.3684 0
-9.47547 18.3718 0
-7.16883 19.203 0
7.99527 24.4358 0
8.87264 22.5543 0
-16.2795 21.9047 0
-13.7459 22.1884 0
-7.25655 23.0378 0
-7.25129 24.6714 0
4.91072 32.1763 0
8.5272 30.2666 0
-14.3983 27.4354 0
-9.90583 27.2194 0
7.88901 25.0478 0
5.33183 26.6834 0
2.20546 27.6604 0
1.14054 25.7538 0
-4.76959 25.0857 0
-4.60531 25.2074 0
20.35 35.1835 0
22.2396 34.2196 0
-0.287331 23.9744 0
0.981728 24.4018 0
-9.26736 21.9924 0
-9.41858 22.3756 0
6.80284 36.6445 0
13.185 44.7687 0
-3.30881 24.9972 0
-2.76473 26.2508 0
14.0604 25.3151 0
11.6867 25.9357 0
-19.7794 42.3165 0
-21.8281 41.6658 0
-18.2304 40.3974 0
-8.47284 33.684 0
9.12524 21.8953 0
8.65096 21.0442 0
-10.4173 24.2807 0
-8.86685 23.1171 0
11.9879 23.772 0
9.59449 23.8499 0
-1.83563 36.3559 0
-0.545352 30.7829 0
-9.56458 19.9554 0
-10.0809 20.8727 0
16.9541 25.3305 0
14.5746 25.9324 0
14.6736 20.7329 0
12.3549 22.5567 0
16.956 30.7858 0
13.1826 31.8979 0
-1.85277 29.0981 0
-1.53218 27.4449 0
-16.1885 32.0569 0
-18.2757 30.9258 0
3.04978 25.3843 0
1.94063 26.1351 0
7.63221 29.4188 0
6.64032 26.3399 0
5.19183 24.1242 0
4.31335 25.3819 0
-6.14767 28.1304 0
-5.56901 28.8853 0
7.18676 22.8788 0
6.99088 23.5087 0
5.84622 29.6028 0
6.53445 32.183 0
-13.9101 25.7249 0
-10.7693 25.8883 0
18.5341 31.7721 0
20.7573 30.991 0
-8.72689 25.4908 0
-5.96448 27.4757 0
-14.6551 34.5917 0
-10.6891 32.0287 0
3.42006 31.6151 0
2.99606 31.924 0
-16.6785 24.141 0
-13.5932 24.5112 0
-17.1047 26.217 0
-14.7274 26.647 0
[...]
CELL_DATA 2352
SCALARS current_Length float
LOOKUP_TABLE default
0.884464
1.023
1.47922
1.46986
1.64981
1.46938
0.533399
1.02935
1.77503
1.09572
1.02853
1.21909
1.75714
1.48437
0.481622
0.162756
1.74069
1.01933
0.0365761
0.592489
0.563752
0.827327
0.280848
0.708532
1.29785
1.07247
0.776596
1.05962
0.851632
2.04963
0.422263
0.533874
1.9026
0.502924
1.32569
1.14692
0.77152
0.825863
1.0692
0.960381
1.32286
0.857567
2.02675
0.00249753
1.27404
1.60056
1.49988
0.896888
0.763762
1.06778
0.718307
0.887261
1.19117
1.57884
1.86939
0.981547
0.959475
1.58548
1.20248
1.44309
1.0967
0.634963
0.714279
0.523929
1.08783
0.858313
1.1281
2.19171
1.73557
1.45515
0.882879
1.066
1.36521
0.882867
1.18601
0.947282
0.967972
1.8371
1.1087
1.13323
0.848833
1.90869
0.338332
0.627319
0.55741
0.567253
1.00573
0.00250032
1.42422
0.00248848
1.28244
1.80124
0.702222
0.719408
1.30791
1.58843
0.00251526
1.71005
0.46279
0.502045
1.20579
1.02924
0.454066
1.55874
0.186648
0.602288
1.455
0.391356
0.844793
1.55909
1.01354
1.17701
0.977325
1.23437
1.03622
1.6071
0.739665
1.01278
1.19428
0.459851
1.52294
0.00250691
1.45118
0.875828
0.602985
2.13842
0.721646
1.32657
2.31962
0.0453988
1.09137
1.05824
2.06655
1.32769
2.567
0.935409
2.69938
1.11315
2.26162
2.27737
1.64027
3.12859
0.204301
3.22994
1.29085
2.10079
2.18727
0.823151
2.18311
2.06706
2.31521
0.462875
2.62135
3.61016
1.06774
2.57579
1.29278
2.45105
1.17177
2.03854
2.06156
1.40142
2.73924
0.951321
3.02494
0.719492
2.56379
2.64084
1.75701
2.81227
0.627304
2.75516
1.40022
2.0532
1.55992
1.9355
2.08663
0.749932
2.13176
1.03124
0.01008
0.564963
4.08914
0.792575
1.00222
3.00698
1.51603
1.68627
1.30024
0.254729
1.12344
1.89097
1.88962
1.0269
1.00491
1.21736
1.14141
1.15578
1.7298
1.33971
1.21556
0.914675
1.03532
2.1506
1.09914
1.32246
1.38037
0.695899
1.6663
0.00250176
1.8178
1.44079
1.41928
0.815508
1.56668
1.60119
0.650634
1.42647
1.7603
1.67068
1.65212
1.89113
0.746222
1.12993
2.17772
0.522604
0.724737
2.46873
0.00249818
1.39565
1.58323
1.43533
1.81506
1.53598
0.67666
1.72645
2.71121
0.943454
1.81734
3.29368
0.694156
1.00588
1.45508
1.3385
1.03309
1.55325
0.49588
0.608782
2.85
0.661219
0.593249
1.8837
0.619466
1.70444
2.84
1.08565
0.957679
1.47522
0.755677
0.967977
2.66891
1.73179
0.763626
1.00369
0.151547
1.17927
1.77486
0.725822
1.74129
2.6282
2.09139
1.13262
2.02252
0.763662
1.86262
2.45956
1.17086
0.919486
1.81541
0.298772
1.05724
2.97237
1.41441
0.0311718
3.04692
1.49189
0.719214
2.09419
1.03052
0.650934
1.63035
0.904155
0.451271
3.20232
0.948692
1.03846
2.12142
1.17065
2.03867
0.90815
1.63146
1.79274
0.527895
1.65751
1.46947
1.20161
1.72225
0.575804
2.95601
0.956146
2.15117
2.06493
1.41589
1.68627
1.39619
1.14564
1.27028
0.829486
1.67586
1.5213
0.066345
0.506269
1.63972
0.788584
0.00251369
1.04472
3.53936
1.47745
0.985624
2.57143
0.996505
0.00252179
3.50264
0.0540828
2.02729
3.11373
0.552682
1.14019
2.13697
1.47858
1.01961
1.99778
0.858269
1.59628
1.62503
1.55583
1.17462
0.991088
0.732371
1.54636
1.75476
0.84846
1.00325
2.79784
0.753894
1.42411
0.880128
0.52068
1.70535
1.65194
0.796227
0.34569
0.77947
0.73026
0.742097
3.43574
2.00068
2.03886
0.561594
1.10222
0.255233
1.82528
0.42778
0.786458
3.4364
0.872247
1.14992
1.40336
0.198516
0.956914
1.33147
0.679886
1.89757
2.56296
1.91585
1.45099
1.21751
2.17142
1.56021
0.387328
1.83331
0.646022
2.68434
1.00384
0.888973
3.0543
1.62738
0.0688008
1.23479
0.390448
1.00478
2.04498
1.212
1.14256
1.22326
1.58834
1.21379
1.44213
1.01119
0.168969
3.12626
1.7747
1.23535
1.11467
0.493568
0.0484674
2.12601
0.886375
0.530374
3.14488
1.2944
1.703
0.880095
0.366291
0.951596
2.26414
0.737099
0.932227
2.48728
1.06549
2.03251
2.16471
0.81942
0.976305
1.76489
0.868928
0.228321
1.3165
0.704505
1.08784
3.36508
1.60588
1.1093
0.00250377
2.15605
1.10122
1.02765
1.53217
0.28444
1.75876
0.542216
1.63078
2.99589
0.974369
1.21697
1.8116
1.24395
1.5255
1.47783
1.03466
1.36674
0.754166
0.820906
1.5016
0.5963
0.985699
0.292807
2.68151
1.60492
1.09129
1.51985
0.433261
1.40094
1.29393
0.951003
0.866468
2.79464
1.21622
0.867021
2.60398
0.345403
0.852911
1.20185
0.0818228
0.965615
4.19037
0.64163
0.890702
1.79959
0.937651
0.762194
1.52042
1.19377
0.824967
1.62858
1.77387
1.112
1.1767
0.836654
1.54354
2.12754
1.7357
2.27192
1.73338
1.47642
0.731862
1.57995
0.355696
0.567332
3.8868
0.169938
1.07514
2.42278
1.22282
2.03741
0.433861
0.75564
1.11408
2.34739
1.34552
0.601638
2.32744
1.81056
0.396173
2.96841
1.42975
1.23242
1.38046
0.813327
1.77134
1.10838
0.570566
1.26471
1.24697
0.503005
1.00045
2.91004
0.0128171
0.816438
4.62666
1.07273
0.499236
1.69769
0.983768
1.15317
1.11732
1.30452
0.996909
0.955315
0.69496
1.27573
1.26116
1.00087
0.59203
2.21923
1.10133
0.931974
0.970928
1.51951
0.621131
0.166884
1.46822
1.2715
1.74507
0.842535
0.491176
1.74021
0.209397
1.65001
3.0502
1.26741
0.919445
0.853807
0.00250688
1.57979
1.51086
1.56805
1.07565
1.79653
0.844388
0.949008
1.52522
1.12284
1.49274
2.15026
1.79224
0.304828
3.2152
0.484164
1.31918
1.41716
1.96808
0.829491
2.43544
1.48494
1.32193
1.38783
0.926388
1.42447
2.53867
1.36443
1.40534
1.36131
1.65614
0.52541
1.36622
0.182833
1.18111
1.67232
1.16097
1.28302
1.75431
0.940789
1.11342
1.49198
0.0216427
0.519286
4.67449
1.12881
1.38779
1.66395
0.714915
0.955147
1.17164
0.724344
0.489724
1.11732
0.0101407
0.72862
4.19414
1.13405
0.696299
1.40765
1.51348
0.816925
1.46633
1.1837
0.57518
1.19739
1.78514
2.55399
1.55526
1.51994
0.187595
1.67715
1.68982
0.357976
1.83809
0.789378
0.706066
3.07475
1.31554
0.467338
1.51986
0.779226
1.16745
1.65217
0.889102
0.660939
1.15036
1.12689
0.42874
1.5832
0.617865
1.34608
1.44039
0.36566
0.116804
4.338
0.496091
1.54682
1.90522
1.45373
1.10479
2.96801
0.662318
1.22063
1.61194
1.84587
1.67344
0.964085
0.364096
1.20065
2.45183
0.806272
0.832693
1.12198
1.88556
0.710913
2.54934
0.797519
1.71559
0.859603
1.1947
1.23277
0.633955
0.854347
1.08313
2.32407
0.399751
1.30865
1.17464
0.448829
1.29272
0.88631
0.778302
1.31343
0.204426
0.939408
1.29544
2.12125
1.15525
0.828802
1.3391
1.7485
1.61225
0.411961
1.08036
1.07529
1.16808
0.995602
0.830716
1.3666
0.803374
0.721207
2.45351
0.977609
1.32275
2.14958
0.119083
0.887978
0.750875
0.705713
1.21179
0.9743
0.889971
0.924228
1.04177
0.462801
1.70318
1.97728
1.44162
1.54835
1.2258
1.62729
1.38401
1.05266
1.16878
1.12093
2.45446
1.80517
0.407249
2.94998
0.73903
1.50401
1.07239
1.29901
1.11835
0.819205
0.978097
1.32901
2.37404
0.491273
1.54811
1.33938
1.21996
1.35283
0.973266
1.90143
1.65266
0.304453
0.679835
1.19328
0.951208
1.71684
1.36693
0.659578
1.79543
1.72899
0.261305
0.112485
0.663111
2.19353
0.912722
1.92244
2.35643
1.32395
1.27762
1.68511
0.941163
1.44661
1.735
1.59281
1.39946
0.52459
1.0555
0.353666
3.10742
1.23045
1.23219
2.41588
1.0396
0.879471
1.01817
1.5111
1.66461
0.453927
1.40491
1.41012
0.939205
0.694541
1.18405
1.9067
0.612923
1.17299
1.08335
0.00250006
1.65233
1.43697
0.745254
0.817391
1.57576
1.1125
0.881934
2.44387
1.72525
0.598438
1.43337
0.7763
0.524626
2.18936
0.123121
1.45835
1.90895
0.843256
1.90241
0.0656996
2.39445
2.32701
0.8566
0.92017
1.09552
1.05342
0.721624
1.11908
1.54217
0.641558
0.506992
3.42718
1.07877
1.16094
0.858514
1.21123
2.03321
1.96872
0.0258135
0.982957
3.08401
0.637097
1.182
2.1662
1.82054
1.60767
0.884333
1.79769
1.61915
0.972729
0.736738
1.00375
1.5455
0.475496
1.10614
2.46183
0.158474
1.5609
0.377531
1.25565
0.513662
2.66071
1.08598
1.09365
1.06704
0.957147
1.32706
1.06463
0.493137
0.74145
0.630601
1.43148
0.428168
1.10259
0.755424
0.616181
3.12065
1.09385
0.529491
1.30666
1.16416
0.987728
1.89991
1.06041
1.50863
0.929103
0.0100432
2.03729
2.71345
0.880175
1.13978
2.30183
0.787039
1.08273
1.9695
0.8792
1.28374
1.93021
0.541571
1.78303
2.76117
0.845481
1.50804
1.51727
0.898709
1.40643
0.324161
0.22973
0.940728
2.46975
0.271384
1.14521
0.770296
1.05263
1.18549
1.40146
1.7763
1.607
1.23218
1.04757
1.36769
1.0788
0.169169
1.09389
1.976
1.12906
1.99947
1.34814
0.176619
0.922542
1.51163
0.0548298
0.376623
0.907055
1.35248
0.736076
0.761041
1.23071
0.571701
1.83493
1.18404
0.837662
1.16024
0.719061
1.17331
2.51826
1.16346
0.688456
2.69383
1.44784
1.4307
1.36502
0.709908
1.39706
0.820561
2.00073
1.55334
0.998758
1.41978
0.824672
1.55128
1.4438
2.02543
1.14916
1.38425
0.51139
0.853467
1.35145
0.641071
0.949874
0.467846
1.4108
2.14398
0.79331
1.15829
2.58444
1.43023
0.793661
1.91624
1.78158
1.43389
0.580016
1.19695
0.975981
1.22486
0.650054
0.833737
1.15138
2.0097
1.79802
0.0787999
2.05892
2.15325
1.58828
1.15242
1.74237
1.23247
0.316223
1.26747
1.59474
1.63231
1.85312
1.05722
0.697896
0.362169
1.07775
1.42371
0.884241
2.13657
0.963575
0.00250311
3.5653
1.22586
1.74656
1.48643
1.43126
0.294662
1.39036
1.8143
1.22438
1.11976
0.738968
0.992837
1.04368
1.97687
0.784036
2.47817
0.94083
0.0101415
2.99573
0.699933
0.804192
0.549726
0.990923
0.33938
0.777708
0.186385
1.1478
2.13103
2.04409
1.31706
0.383255
0.620659
1.35039
1.75939
1.51627
1.25656
1.34727
1.18886
1.54188
1.52442
0.701472
1.40796
1.41512
0.949576
0.584713
1.28696
1.40412
1.48051
0.867296
0.73453
1.51998
1.85123
1.07568
0.998306
1.52754
1.46559
0.734378
1.20919
2.20923
1.42436
1.89908
0.657753
1.37966
1.90038
0.815162
0.823179
1.7156
2.02056
1.66678
1.18102
1.16681
0.58693
1.01815
1.27569
1.0006
0.8716
1.46502
1.60579
1.06796
1.17582
1.45122
0.894977
1.09764
1.94453
1.26383
1.26986
0.660073
1.00783
0.858277
1.82516
1.23751
0.751044
0.850418
1.50302
1.12512
1.06992
2.31072
0.681714
1.89097
1.85648
1.21081
0.996915
1.70997
0.606652
0.549362
1.52561
0.84846
0.982407
1.81791
0.385851
0.991228
3.39255
1.45059
1.61794
1.01934
1.15219
0.896476
2.40531
1.22779
1.42564
1.02394
1.38851
1.15525
0.842362
1.0126
1.40293
0.895162
1.74076
0.841644
1.84857
1.54951
0.577948
1.37546
0.661461
1.38922
0.68835
1.51708
1.36953
1.05839
0.95005
0.791395
0.670108
1.10965
0.493947
1.32237
0.73083
1.2302
1.45317
0.225906
0.610092
3.96241
1.46492
1.57298
1.73295
0.8801
0.505454
1.7267
1.93437
1.34225
1.19767
2.02839
0.839952
1.56361
0.847174
1.66736
1.28987
0.823292
1.23631
1.75486
1.48453
0.343077
0.958791
1.20485
0.648767
0.84365
1.47924
0.749712
1.88816
1.10999
0.336528
1.40357
1.45665
1.01607
1.11235
0.910947
1.34357
1.56413
1.33807
1.24366
1.05385
0.578952
1.2806
1.85449
0.875267
1.09893
2.48607
1.26926
0.785588
2.46587
1.03596
0.0968528
3.7359
1.08806
0.244549
1.72847
1.03174
0.554343
1.47735
0.646655
1.06853
2.78435
0.900021
0.549667
0.636559
1.34006
1.65517
1.22085
0.825314
0.812491
2.16279
1.17085
0.939206
1.61922
0.646532
0.56271
1.7107
1.32737
0.839587
1.38427
1.52736
1.07294
1.74207
1.0679
1.23517
1.18183
1.61922
1.11114
0.928883
0.744962
0.728574
1.96535
1.20665
0.870772
0.612504
1.83556
1.25376
0.544046
1.13366
0.801998
0.711448
0.440556
0.476483
2.39637
0.846788
0.788235
0.903
0.666947
0.634012
1.16155
0.741996
1.20338
1.14457
0.543897
1.10068
1.41339
0.980766
0.873711
0.69701
0.735768
1.43656
1.56543
0.855393
1.70582
0.947822
1.48392
1.42348
1.2203
1.94233
1.55732
0.689998
0.974662
1.91456
1.81484
1.04094
1.36398
0.790186
0.390887
0.758707
1.95196
1.08768
1.26884
0.962642
0.706206
1.62979
2.17438
1.28869
2.14835
1.99471
1.43655
1.30367
2.20809
1.97478
0.975338
1.46999
1.07112
1.27843
1.01109
1.17263
0.904665
1.30368
1.42189
0.9616
1.40368
1.46299
0.839203
1.39055
1.14802
0.537912
1.51041
1.55897
1.51721
0.882016
1.53303
1.10434
1.08976
1.32897
1.3562
1.47372
1.0935
1.17428
0.897468
0.0648586
0.965166
1.43381
0.801291
0.81866
1.9922
1.42293
0.887554
1.75397
0.706756
1.59488
1.89452
1.72657
0.776568
1.16736
1.32857
1.26773
1.22766
0.818195
1.71069
1.48665
0.717446
1.29381
2.53413
1.13048
0.857186
2.5125
1.32184
1.00448
0.954728
1.54536
1.42214
0.631173
0.769591
1.09809
0.844184
1.30175
0.824985
0.969288
1.89369
0.532743
1.86323
2.25285
2.3847
0.746315
0.635214
1.29416
1.36859
1.23718
1.36483
1.40885
0.927981
1.06306
1.45369
1.44961
0.321978
1.65316
0.794885
1.13311
0.661959
0.569585
0.3885
1.55709
0.62239
1.0142
1.85598
0.898029
0.395322
0.889682
1.70613
1.12
1.71794
0.118395
0.598142
1.05871
0.438943
0.906016
1.5328
0.707709
1.4543
1.27813
0.511125
1.49192
1.34563
1.30894
1.37266
0.9396
0.438032
1.409
0.582057
1.38225
0.973082
1.33426
1.87709
1.60502
1.54438
0.82129
1.20542
2.36024
1.04694
1.2438
1.08408
1.06016
1.11125
1.91186
0.740136
1.45323
1.69336
1.18551
0.293243
1.69916
2.07607
1.30124
0.408735
0.982563
1.34352
1.15
1.5481
1.56119
1.02146
1.13249
1.50816
1.32391
1.82771
0.0308029
1.89723
1.00756
1.43961
1.53681
1.50644
1.00599
1.04288
1.09254
1.31907
0.909987
0.668482
0.906262
2.92579
1.4209
1.48892
1.47531
1.173
1.43666
1.53718
2.05355
1.4493
0.664017
0.859105
1.55355
1.55429
0.695973
0.597173
1.94933
0.939987
0.739627
1.292
1.3082
1.45158
1.82704
1.82521
0.621368
1.22969
0.261646
0.983608
1.77856
1.48782
0.597098
0.938584
1.28197
1.06549
1.36447
0.805426
1.32206
0.839897
1.48498
1.22415
1.61817
0.856509
1.42014
1.20533
1.74227
1.23226
0.765997
1.44261
0.820451
1.13129
2.02328
1.0836
2.14625
1.15179
0.63751
0.404834
1.32554
0.497195
2.04443
1.0141
1.69366
0.688513
0.977049
1.9207
1.06848
2.15023
1.08158
1.37212
0.453377
0.848684
1.19346
0.6931
1.04638
1.60018
0.455541
1.15127
1.72096
1.29009
1.27316
1.36437
1.51921
1.3495
0.638626
1.14913
1.33304
0.882789
1.00479
1.80297
0.988115
1.39602
1.93712
1.27993
1.47605
0.874922
2.27617
1.15398
0.79108
1.18858
0.504984
0.681143
2.24607
1.20786
0.922983
0.74951
1.25137
1.41362
0.966506
0.819025
0.972064
1.52973
1.4967
1.71002
1.26821
1.26712
0.767764
1.42703
0.214289
0.124928
1.40215
0.666252
1.24057
1.20079
0.141285
0.857476
1.30003
1.09446
0.797402
1.52429
2.07862
1.3154
1.96908
1.27734
0.881238
1.45996
1.86675
1.37236
1.56848
0.928096
1.11977
2.00698
1.55325
0.797479
1.52715
1.4411
0.595496
1.1481
0.992364
0.786404
1.85677
0.404014
0.126854
1.88541
1.1491
0.321912
0.797874
1.87469
1.58012
1.29076
0.391892
0.730808
1.74335
0.961595
0.850231
1.38011
0.744238
0.970866
0.75324
0.79544
0.698867
1.8998
1.31178
0.468388
0.751899
1.08026
1.30891
1.37804
1.65125
0.971148
1.8293
1.90343
0.663091
1.08615
0.726334
1.3558
2.33249
1.17955
0.431126
1.76182
1.12994
0.847911
1.52017
2.27854
1.35139
1.95301
0.69574
1.26297
2.14843
1.41077
1.44823
0.814319
1.76195
1.96892
0.935313
1.55035
0.687714
0.973521
1.65237
0.390124
0.594641
0.928396
1.23431
1.66161
1.48253
1.36168
0.824362
0.404666
1.16752
1.0945
0.568236
1.02062
1.00525
1.03817
1.62273
1.07233
0.297205
0.876861
1.28077
1.00729
1.93119
1.55307
0.187926
1.32253
1.76556
1.28189
0.917807
1.43153
1.4997
1.6937
0.982642
1.44348
1.64128
1.52333
1.59743
0.217809
1.71247
2.15368
1.35272
1.89481
1.44315
1.46699
1.31909
0.328806
1.04425
1.24279
1.71794
1.22217
0.732031
1.18922
0.719529
1.27419
0.88368
1.23238
1.82308
0.793942
1.43659
1.40495
1.42681
1.63042
1.18947
0.729009
0.982302
1.40182
1.68794
0.979475
1.91105
0.841044
1.01033
1.80544
1.32892
1.38588
0.954784
0.0632651
1.14861
1.51257
0.423959
0.517892
1.60333
1.11656
1.5001
1.66954
1.44885
1.38314
1.54786
1.42606
1.08441
1.59002
1.06526
1.04779
1.30106
1.21487
1.3212
1.11628
1.69612
1.72279
1.38216
2.21232
1.41416
1.78428
1.25315
0.195183
1.86278
1.17914
1.66837
0.746821
1.87263
1.10891
1.45932
1.34534
0.939508
1.98871
1.45355
1.26256
0.710528
0.936397
1.17818
0.726922
1.59058
0.400177
0.826632
2.04277
1.29341
1.33818
1.51284
1.60748
1.22676
0.967843
1.44627
1.39595
1.36569
0.372924
1.3462
1.57858
0.897786
1.91975
1.36524
1.01596
1.13145
1.88016
1.75058
0.84731
1.47979
0.653179
1.13467
1.91631
1.3308
0.623295
0.99645
2.0063
1.65604
0.597641
0.56739
0.909115
0.821882
0.573353
1.86319
1.44472
1.50273
1.55884
0.908518
1.1899
0.943395
0.682252
1.43016
1.38403
1.17939
0.909735
1.48681
1.50949
0.648331
2.09318
1.46141
0.807634
1.63991
2.006
1.06432
1.14655
0.836692
0.561691
0.701407
1.15617
0.258622
1.07787
1.15721
1.29437
1.45477
1.41007
1.31358
1.41208
0.843215
0.821071
0.945267
1.37938
1.26703
0.868896
0.842057
0.846017
1.53488
0.814491
1.61242
0.985807
1.10238
2.03043
0.913678
1.43225
1.55485
0.817333
1.39673
1.69928
1.79432
0.995232
1.26695
1.28332
0.578403
1.03049
1.76804
0.786753
1.37237
2.48763
2.08188
1.5595
1.25116
1.37298
0.743988
1.30537
1.1423
1.48792
0.911722
0.754804
0.762537
1.16339
0.431937
0.619461
1.08257
0.922106
1.23732
1.21049
1.53655
0.644278
1.96241
1.46782
1.50518
0.905807
1.39822
1.04626
0.551643
0.212606
1.18476
1.49305
0.897852
1.76717
1.57433
0.597207
0.616337
1.55969
0.991213
1.07091
1.23436
0.587125
1.53045
1.08016
0.877864
0.365498
1.13837
1.27642
1.26306
1.44814
1.24866
1.44194
0.916828
0.593377
1.30897
1.69434
0.9723
0.928961
1.67474
1.34055
0.690026
1.39707
1.30885
0.925002
1.34239
1.62999
1.1883
1.3942
1.8264
1.15237
1.57547
0.900844
1.67118
0.826901
0.734348
0.674531
1.7851
1.27424
1.29197
1.17038
1.30988
0.820043
1.36469
0.819209
1.17362
1.28919
1.13003
1.54818
1.4126
1.55271
0.873898
1.91784
0.504917
0.607913
1.41152
1.37936
1.62721
1.51211
1.41443
1.30391
1.96347
0.544322
0.594733
1.82417
1.96402
1.24431
0.791917
1.3448
1.0334
1.18815
0.882006
1.11202
1.42152
1.55248
1.24916
1.84084
1.29663
0.80892
1.28547
1.04982
1.54546
1.0109
0.92402
1.18656
1.81164
0.790965
0.786558
1.16226
1.17532
1.14846
0.934394
1.49184
1.3095
1.83161
1.321
1.37045
0.846821
0.872021
0.725803
1.1833
0.776394
1.55902
1.18367
1.18338
0.861857
2.03196
1.55002
0.849838
1.30204
0.647895
0.359404
2.16898
1.3085
1.08741
1.0603
1.63958
1.27136
1.79502
1.67246
0.998857
1.01827
1.69494
1.35183
1.50229
0.508069
1.27491
0.919981
1.11204
1.38416
1.06102
1.39154
1.54456
1.35323
1.60549
0.947104
0.653822
0.917493
1.03965
1.51005
1.4562
1.63915
1.27492
1.08398
1.36387
1.66164
0.820727
1.31943
1.24928
1.41319
1.08902
1.52791
1.39267
0.843738
2.0358
1.25571
1.56571
1.34937
0.409874
1.22699
1.52069
0.935475
0.339413
2.01385
1.2253
0.781579
1.51286
0.775459
0.897797
1.77872
1.11249
0.452013
2.32434
0.897181
1.17341
1.24328
1.25203
0.292038
1.2761
1.35432
1.45053
1.44904
0.370239
0.455703
1.26724
1.4386
1.34324
1.10879
1.20364
0.789092
1.16553
0.773456
1.15675
1.66437
1.1508
0.619917
0.778548
0.924578
1.01434
1.93578
1.32842
1.57863
1.36563
1.57418
1.6041
1.16324
0.801427
0.941678
2.12381
1.2284
1.26261
1.0382
0.618353
1.28496
1.3377
1.33906
0.817658
1.26591
1.45662
0.913438
1.74106
0.807379
0.78303
1.57931
0.917227
1.89697
1.65298
0.343596
0.98434
1.89546
1.84003
1.15212
0.214007
2.11317
1.35494
1.88687
1.03815
0.759563
1.63672
1.2076
0.830809
1.86249
1.42269
1.20898
0.744238
1.22421
1.51887
1.54146
1.35384
1.44207
1.33019
0.694095
1.49837
0.375162
1.13845
0.581003
1.85852
0.634089
0.599364
2.19151
1.30773
0.814108
1.10814
0.474867
1.07797
1.63679
2.13736
0.494877
1.22012
1.97725
0.394771
1.32341
1.59612
1.33696
1.08055
0.684121
1.02515
1.53743
0.921532
1.14209
1.75349
1.03444
1.08298
1.64862
1.44763
1.18628
0.715863
1.7228
1.42024
1.01903
0.993126
1.7989
1.96198
0.894251
1.2487
1.39038
1.72377
1.37595
1.09217
1.67361
0.882383
1.59979
1.86312
1.38136
0.902629
1.12291
0.94362
1.71893
0.884349
0.966063
0.978363
0.934581
1.04363
1.54317
1.9111
0.521409
1.7838
1.46577
0.571013
2.1329
1.13378
0.735193
2.05605
1.83111
0.891716
1.98928
1.59053
1.03311
0.96646
0.288274
0.756953
1.40269
1.46635
1.32253
1.22319
0.998708
0.757216
1.55149
0.691651
1.01875
1.42158
0.275487
0.759529
1.94088
1.79752
0.818119
1.61611
1.03317
1.13048
1.72156
1.11156
0.688782
2.0145
1.19463
1.07353
1.75073
1.41067
1.03529
2.14945
1.50478
0.604046
1.59269
63
150
149
430
612
336
316
3.36787
3.28834
26
92
158
350
416
482
3.29203
3.30645
3.31719
3.34181
3.3521
3.36529
0
0
0
0
0
0
0
0
0

SCALARS edge_force float
LOOKUP_TABLE default
0.5
0.5
0.5
0.5
0.5
0.5
0.5
0.5
0.5
0.5
0.5
0.5
0.5
0.5
0.5
0.5
0.5
0.5
0.5
0.5
0.5
0.5
0.5
0.5
0.5
0.5
0.5
0.5
0.5
0.5
0.5
0.5
0.5
0.5
0.5
0.5
0.5
0.5
0.5
0.5
0.5
0.5
0.5
0.5
0.5
0.5
0.5
0.5
0.5
0.5
0.5
0.5
0.5
0.5
0.5
0.5
0.5
0.5
0.5
0.5
0.5
0.5
0.5
0.5
0.5
0.5
0.5
0.5
0.5
0.5
0.5
0.5
0.5
0.5
0.5
0.5
0.5
0.5
0.5
0.5
0.5
0.5
0.5
0.5
0.5
0.5
0.5
0.5
0.5
0.5
0.5
0.5
0.5
0.5
0.5
0.5
0.5
0.5
0.5
0.5
0.5
0.5
0.5
0.5
0.5
0.5
0.5
0.5
0.5
0.5
0.5
0.5
0.5
0.5
0.5
0.5
0.5
0.5
0.5
0.5
0.5
0.5
0.5
0.5
0.5
0.5
0.5
0.5
0.5
0.5
0.5
0.5
0.5
2
0.5
2
0.5
2
0.5
0.5
2
0.5
2
0.5
2
0.5
0.5
2
0.5
2
0.5
2
0.5