# vtk DataFile Version 2.0
2D-vertex
ASCII
DATASET UNSTRUCTURED_GRID
POINTS 450 float
-0.00874621 -2.3941 0
2.4767 -2.31068 0
2.9117 -1.39359 0
1.95199 -0.279873 0
-0.342522 -0.0111678 0
-1.13605 -1.44454 0
3.46126 -1.38788 0
4.07935 -0.565299 0
3.24625 0.970781 0
2.15138 0.707994 0
1.03712 1.99094 0
-0.658242 2.57848 0
-1.49061 1.35473 0
-1.68305 1.31751 0
-2.26556 -0.275076 0
-1.80146 -1.17856 0
4.65223 -0.754899 0
5.53465 0.0855638 0
3.80152 1.67408 0
3.48813 1.61555 0
2.68732 2.60131 0
1.5698 2.5768 0
1.1356 6.06308 0
0.131983 6.07324 0
-0.707316 4.30205 0
-2.02841 3.53141 0
-2.03743 1.69725 0
-3.37107 1.4618 0
-3.90839 0.494219 0
-3.63765 -0.226058 0
6.61465 0.0382039 0
7.29389 0.749073 0
7.17765 2.06419 0
5.04126 3.28787 0
5.56044 3.85136 0
3.26518 5.21987 0
2.61385 6.44018 0
1.62914 6.6515 0
0.716018 9.56857 0
-0.993289 9.62186 0
-0.704865 6.91089 0
-2.39538 6.09232 0
-3.43416 4.703 0
-4.46791 4.78443 0
-5.21487 3.49682 0
-6.65713 3.24827 0
-6.9712 2.23279 0
-5.47459 0.802402 0
7.66728 2.70034 0
7.3908 3.71828 0
6.69572 4.14198 0
6.10909 6.18833 0
3.78635 7.41609 0
3.74528 8.16325 0
2.30865 9.66134 0
2.89834 10.3923 0
-2.02965 10.8801 0
-1.99777 10.2273 0
-3.20752 9.08415 0
-2.94477 7.08994 0
-4.68876 7.53504 0
-6.06159 6.34897 0
-8.04023 5.03404 0
-7.91408 4.46948 0
8.37121 4.10482 0
8.37153 4.1073 0
7.07521 6.14777 0
7.54872 7.37342 0
6.41791 8.58901 0
6.66901 9.29496 0
6.04769 10.2144 0
5.94436 10.559 0
-2.78697 13.1413 0
-2.97937 12.9645 0
-6.49734 10.8198 0
-5.81943 9.86135 0
-6.54087 8.70601 0
-6.42578 8.44262 0
-9.01488 5.62786 0
-8.8629 5.22477 0
9.91251 4.34334 0
10.292 5.31864 0
9.5907 6.35991 0
10.7557 6.7157 0
10.5842 8.27937 0
10.8488 9.05807 0
10.2407 13.982 0
10.8763 16.5368 0
-9.61844 16.9451 0
-9.59613 16.6257 0
-10.4589 10.4451 0
-10.1315 9.80635 0
-10.4746 9.22155 0
-9.72444 8.03595 0
-10.4925 6.80977 0
-10.0495 5.77373 0
3.30285 -4.19542 0
4.53829 -3.6988 0
5.40341 -3.32618 0
7.84566 -1.82645 0
9.21103 -0.438983 0
10.6584 1.83334 0
10.767 2.00871 0
11.5429 3.07638 0
12.429 4.98162 0
12.6841 5.7758 0
13.0499 9.34664 0
13.1319 17.2184 0
-12.4494 17.9262 0
-12.8451 10.5165 0
-12.806 9.14299 0
-12.4848 6.51881 0
-11.662 4.5391 0
-10.8287 3.39983 0
-10.2244 2.63088 0
-9.31358 1.23601 0
-7.42042 -0.958963 0
-5.37325 -2.42242 0
-3.29913 -3.48332 0
-0.323588 -4.41046 0
12.9222 11.2954 0
9.32493 11.1114 0
-12.915 13.5449 0
-10.3712 13.8584 0
-0.493328 3.99893 0
0.895944 4.05601 0
-1.98958 6.02088 0
-1.36181 4.31756 0
4.60683 5.37051 0
5.04156 6.28957 0
0.416918 10.98 0
0.208689 10.0663 0
-1.24311 8.16177 0
-2.5629 7.90683 0
6.10833 6.18975 0
5.40746 8.11109 0
4.44864 8.62211 0
4.45425 9.80672 0
2.53211 11.1965 0
2.53008 11.195 0
-2.7582 11.2862 0
-4.3113 9.93533 0
-3.8838 9.15754 0
-4.78774 8.11215 0
1.12087 1.38845 0
-0.386154 0.435985 0
6.36603 2.3292 0
5.20404 0.796487 0
5.03923 3.28931 0
3.03565 4.13357 0
-9.33012 11.9296 0
-6.28011 11.3979 0
3.03316 4.13338 0
1.56871 4.85497 0
-9.67735 7.93971 0
-8.25557 7.2519 0
-1.17698 -1.46315 0
-1.69354 -4.11472 0
2.17322 29.1931 0
2.23124 31.007 0
0.828261 -2.08097 0
0.99638 -0.653917 0
2.66187 8.58871 0
1.42772 7.52974 0
9.14247 10.5896 0
6.08163 10.2725 0
8.49335 22.5649 0
0.551949 12.5963 0
-3.07251 -0.509108 0
-3.86736 -3.22075 0
-4.67323 2.53855 0
-5.57891 1.42567 0
-6.01645 -2.01819 0
-4.88098 0.377306 0
0.431062 8.06226 0
-0.604793 7.61416 0
9.53898 6.16424 0
7.88515 5.43578 0
5.32427 -0.43556 0
6.93234 -2.48853 0
1.23612 -4.54433 0
1.35468 -2.53522 0
-6.54084 1.57867 0
-8.16563 -0.236804 0
-5.71833 5.23848 0
-7.03901 4.09978 0
7.47052 2.19676 0
9.82827 0.420957 0
-12.7015 7.90514 0
-9.72602 8.03399 0
13.0812 7.8196 0
11.0252 7.7615 0
-3.05307 3.76896 0
-3.97901 2.49868 0
-9.79076 2.01229 0
-7.04311 3.55733 0
-3.83312 6.93713 0
-4.63366 5.10603 0
-7.14732 7.37172 0
-6.73197 6.48114 0
8.57404 7.52545 0
8.84049 8.09505 0
-0.768514 12.4454 0
-0.679557 11.7341 0
12.9248 11.3051 0
10.5457 12.4895 0
10.2996 15.0832 0
2.39453 11.47 0
8.31078 9.23431 0
9.69035 10.0803 0
-7.73064 8.8938 0
-8.0617 9.76244 0
-2.19895 14.6483 0
1.19999 13.8037 0
-10.1731 14.4817 0
-4.37063 13.0082 0
9.68962 10.0827 0
12.9516 10.5507 0
-10.649 16.0316 0
-12.7546 16.8056 0
-12.8317 11.6914 0
-9.58354 11.5646 0
12.1667 20.0432 0
10.0565 18.3637 0
8.96265 11.5728 0
6.901 11.6442 0
-9.58326 11.5621 0
-7.70937 10.6084 0
2.84334 14.4313 0
4.69538 13.0439 0
-4.80511 11.6897 0
-3.97145 10.7967 0
5.45966 12.8771 0
4.57622 11.3112 0
13.2213 13.1749 0
10.7756 13.1794 0
-2.88239 14.3053 0
-4.89542 14.0281 0
-3.29903 27.3676 0
0.327997 15.1527 0
-6.93352 12.1433 0
-4.8572 13.4227 0
-12.8471 12.512 0
-9.81444 12.7123 0
6.66211 16.9977 0
8.61337 15.5875 0
-0.796954 13.9382 0
-0.49092 12.7087 0
-9.36193 20.6723 0
-11.671 21.2248 0
1.69851 28.9288 0
2.7322 15.3838 0
-3.02775 16.6545 0
-8.87893 21.2569 0
-10.7738 15.0695 0
-12.9832 14.821 0
-6.81849 15.8975 0
-6.46917 14.56 0
-6.77727 12.6817 0
-7.61839 13.8795 0
13.3114 15.3269 0
10.9244 15.67 0
-8.71158 22.9287 0
-10.3583 24.3145 0
6.62017 12.6467 0
5.46145 12.8754 0
10.194 17.0776 0
8.57635 16.4471 0
4.46642 14.0084 0
7.09413 16.6876 0
-1.95588 15.7013 0
-0.17602 15.9912 0
9.66131 26.8385 0
8.24356 25.5988 0
0.674461 15.098 0
1.7589 15.9597 0
6.06676 26.9377 0
4.52873 16.2339 0
13.2672 14.2548 0
10.5377 14.4456 0
-8.52837 15.8318 0
-8.77989 14.8637 0
-9.68098 13.0182 0
-7.68054 13.5014 0
-9.16456 20.0535 0
-6.31555 17.3998 0
0.458814 29.5358 0
0.264292 30.9592 0
2.20495 13.7111 0
2.98225 12.333 0
-3.96295 16.0066 0
-4.07692 15.1915 0
-11.9914 19.9446 0
-9.7207 19.4479 0
0.319321 17.3548 0
0.0153549 17.1601 0
8.27044 13.8687 0
7.79007 14.6537 0
9.226 12.2287 0
8.11447 13.4465 0
-9.20321 21.9851 0
-11.277 22.5129 0
-2.44214 16.5365 0
-1.40102 17.7325 0
1.9714 16.9581 0
3.86281 17.1394 0
6.8516 14.6831 0
6.58968 15.1171 0
-7.08507 19.3106 0
-6.75465 19.5715 0
-9.14456 17.3402 0
-6.64911 16.856 0
4.46801 16.0564 0
5.21172 15.0532 0
-7.18347 24.0409 0
-3.54368 18.148 0
8.44616 28.1446 0
7.31539 26.8427 0
-4.88173 29.1584 0
-3.94625 27.3936 0
8.82897 18.5554 0
7.94717 16.9796 0
11.4119 22.3613 0
9.17572 21.8367 0
4.56021 18.5433 0
6.23619 19.6856 0
1.54038 19.2799 0
3.85554 18.861 0
0.0653855 24.8991 0
-2.14701 23.8071 0
-2.40792 22.3729 0
-3.71528 19.9512 0
-6.43459 16.326 0
-4.25941 15.1343 0
-7.84338 23.0925 0
-7.21112 21.0358 0
5.53728 25.3034 0
6.8931 21.8767 0
-12.2526 18.7377 0
-9.38888 18.1542 0
-9.28274 18.2832 0
-7.16071 18.4335 0
0.288902 19.2334 0
0.449193 19.0716 0
3.18414 28.607 0
1.72427 22.6917 0
3.92822 30.7705 0
3.66804 28.8987 0
-7.24172 27.7344 0
-6.28209 25.8883 0
-5.42185 17.4521 0
-5.00172 18.2448 0
8.47743 19.2108 0
7.34401 18.7966 0
1.88184 17.0747 0
2.35933 18.2535 0
10.4113 17.7536 0
12.8532 18.3281 0
11.88 20.6536 0
8.75607 19.0438 0
-5.53929 25.7018 0
-3.46232 20.5882 0
-1.71946 18.684 0
-3.06393 18.8347 0
3.1574 23.2225 0
3.74434 22.8501 0
-5.5181 19.2986 0
-5.07863 19.9319 0
4.63699 18.1628 0
6.6111 17.6064 0
-0.544425 21.6097 0
0.725036 22.9857 0
1.49901 27.3159 0
3.19628 27.0767 0
-2.68217 28.2953 0
-3.40351 29.8994 0
-1.79977 28.2072 0
-0.972636 24.9708 0
-8.79582 26.3538 0
-7.18789 25.1511 0
-1.36547 19.1322 0
-2.83775 20.7807 0
-5.71367 21.9038 0
-4.58725 21.9361 0
5.17743 27.4698 0
4.15726 26.5838 0
4.83652 21.4274 0
6.08342 22.2755 0
7.72005 25.7061 0
6.64744 24.7021 0
10.6921 24.9159 0
8.81011 24.4424 0
-4.6257 26.3287 0
-2.66029 22.2594 0
5.96649 29.9674 0
4.90368 28.4153 0
2.41297 20.4652 0
3.78633 19.9464 0
-6.10499 28.4504 0
-5.00173 26.3567 0
0.68821 25.6212 0
3.23638 24.79 0
0.508678 20.8529 0
1.53646 21.4381 0
-6.80816 21.6233 0
-5.92429 21.582 0
8.69939 20.5425 0
7.04888 20.6819 0
-0.438681 21.2548 0
-1.67657 20.1458 0
11.7083 21.1803 0
8.74656 20.486 0
-1.45053 23.9497 0
-0.0801827 22.4873 0
-4.12468 23.4469 0
-4.12234 23.4477 0
-3.10465 24.9415 0
-3.69403 24.8626 0
-9.61979 25.3214 0
-7.68036 23.81 0
4.21814 25.3478 0
4.87748 24.9623 0
0.439418 27.1485 0
-0.319106 28.7942 0
-6.21122 23.5359 0
-5.26787 24.2163 0
-1.19926 28.9665 0
-1.70339 30.5422 0
-2.56393 26.0749 0
-1.61219 26.0847 0
8.3199 23.5206 0
6.85713 23.6972 0
7.19794 29.1539 0
5.86741 27.3508 0
4.88657 23.5254 0
6.01334 22.9824 0
2.32816 21.0147 0
3.75664 21.9777 0
2.29483 25.3596 0
2.35458 26.6321 0
4.88589 20.7136 0
6.22456 20.0549 0
1.48463 22.963 0
1.90121 25.1349 0
11.0938 23.5828 0
8.65849 23.0493 0
-1.14891 26.8394 0
0.21579 26.7738 0
-3.2195 27.4872 0
-4.14262 29.5289 0
CELLS 226 1504
5 0 160 161 4 5
6 8 9 3 2 6 7
6 4 161 3 9 144 145
8 12 13 14 15 156 5 4 145
8 7 16 178 17 147 18 19 8
7 9 8 19 20 21 10 144
6 124 125 153 22 23 24
8 25 26 13 12 11 124 24 127
7 13 26 27 28 29 168 14
6 146 147 17 30 31 32
7 18 33 148 149 152 20 19
5 20 152 153 125 21
7 22 37 163 174 175 40 23
5 24 23 40 126 127
5 26 25 192 193 27
7 28 27 193 170 171 47 173
9 148 33 146 32 186 48 49 50 34
5 128 129 52 36 35
6 36 52 53 162 163 37
6 38 54 55 139 130 131
7 40 175 132 133 59 41 126
6 42 41 59 196 197 43
7 44 43 197 184 185 195 45
8 49 64 65 177 66 134 51 50
7 51 134 135 136 53 52 129
6 53 136 137 55 54 162
8 55 137 70 165 71 233 138 139
7 57 56 140 231 141 142 58
7 59 133 58 142 143 60 196
6 61 60 143 77 198 199
5 65 80 81 176 177
6 67 200 201 208 69 68
7 69 208 209 216 164 165 70
5 71 225 264 265 233
8 73 72 236 291 333 237 241 215
5 93 210 211 91 92
8 77 76 210 93 189 154 155 198
5 1 96 97 6 2
5 6 97 98 16 7
5 178 179 99 30 17
4 48 186 187 101
5 48 101 102 64 49
5 64 102 103 80 65
6 105 83 82 176 81 104
4 190 191 83 105
5 164 216 217 120 121
5 254 255 122 123 214
5 90 109 110 92 91
5 188 189 93 92 110
5 95 112 113 79 78
5 79 113 114 63 62
5 185 63 114 194 195
4 47 116 172 173
5 168 169 118 15 14
5 156 157 119 0 5
5 0 119 180 181 160
4 99 100 31 30
4 103 104 81 80
5 284 248 249 292 293
4 111 112 95 94
5 183 116 47 171 182
6 120 204 205 298 224 121
5 122 242 243 282 123
5 124 11 10 21 125
6 126 41 42 192 25 127
5 128 34 50 51 129
6 130 203 56 57 39 131
5 132 39 57 58 133
5 134 66 67 68 135
6 136 135 68 69 70 137
8 138 207 167 247 202 203 130 139
5 140 73 215 230 231
6 142 141 75 76 77 143
5 144 10 11 12 145
4 146 33 18 147
5 148 34 128 35 149
7 150 221 226 227 74 151 240
7 152 149 35 36 37 22 153
5 154 94 95 78 155
4 156 15 118 157
4 222 223 356 357
6 160 181 1 2 3 161
5 162 54 38 174 163
6 164 121 224 225 71 165
7 166 445 430 431 435 387 337
4 168 29 117 169
6 170 44 45 46 182 171
5 172 117 29 28 173
6 174 38 131 39 132 175
6 176 82 200 67 66 177
4 178 16 98 179
4 180 96 1 181
4 182 46 115 183
6 184 61 199 62 63 185
5 186 32 31 100 187
5 188 111 94 154 189
5 190 106 85 84 191
6 192 42 43 44 170 193
5 194 115 46 45 195
5 196 60 61 184 197
6 198 155 78 79 62 199
6 200 82 83 191 84 201
6 202 72 73 140 56 203
4 204 234 235 205
6 206 261 87 266 267 245
5 208 201 84 85 209
6 210 76 75 74 227 211
6 246 247 167 213 274 239
6 214 123 282 283 259 281
5 216 209 85 106 217
5 218 89 88 108 219
5 220 109 90 226 221
5 222 358 359 320 223
5 224 298 299 264 225
5 226 90 91 211 227
5 228 288 289 229 268
6 230 151 74 75 141 231
7 232 229 289 207 138 233 265
5 234 278 279 86 235
7 236 212 270 302 252 290 291
6 253 248 284 308 309 335
6 240 151 230 215 241 258
5 242 220 221 150 243
6 244 277 312 313 307 269
6 246 212 236 72 202 247
5 248 253 300 301 249
8 304 354 294 295 271 239 274 275
6 252 302 303 362 363 315
4 254 218 219 255
5 256 280 281 259 257
6 258 241 237 257 259 283
4 260 107 87 261
5 448 449 318 319 238
7 264 299 296 297 306 232 265
6 267 266 356 223 320 321
6 268 229 232 306 307 313
5 270 212 246 239 271
5 272 316 317 388 273
6 274 213 288 228 251 275
7 276 433 384 385 420 421 336
5 278 260 261 206 279
6 280 89 218 254 214 281
6 282 243 150 240 258 283
5 284 293 340 341 308
5 286 250 158 159 287
5 288 213 167 207 289
7 350 285 311 332 333 291 290
5 292 338 339 340 293
5 328 377 412 413 371
6 296 86 279 206 245 297
6 298 205 235 86 296 299
4 300 262 263 301
5 302 270 271 295 303
6 304 275 251 312 277 305
7 306 297 245 267 321 269 307
7 308 341 285 350 351 366 309
7 310 88 89 280 256 332 311
5 312 251 228 268 313
7 314 419 334 404 405 382 424
5 316 432 433 276 317
5 318 398 399 392 319
8 320 359 352 353 369 244 269 321
5 322 444 445 166 323
5 324 368 369 353 325
5 326 343 294 354 355
6 446 447 422 423 426 376
6 330 329 416 417 415 393
5 332 256 257 237 333
6 334 262 300 253 335 404
6 336 421 434 435 431 389
5 338 108 88 310 339
6 340 339 310 311 285 341
7 295 294 343 342 380 362 303
6 344 158 250 372 439 373
5 346 159 158 344 347
4 348 378 379 349
5 350 290 252 315 351
7 352 411 406 407 441 325 353
7 354 304 305 368 324 327 355
5 356 266 87 107 357
5 358 410 411 352 359
6 360 349 379 314 424 425
7 362 380 409 381 361 331 363
6 364 345 403 436 437 365
6 366 351 315 363 331 367
5 368 305 277 244 369
8 413 370 408 402 403 345 442 371
7 438 439 372 422 447 400 443
5 426 427 375 374 376
7 376 374 448 238 428 429 446
5 378 418 419 314 379
5 380 342 402 408 409
6 382 405 367 331 361 383
6 384 395 347 344 373 385
6 386 440 441 407 337 387
5 388 317 276 336 389
4 390 272 273 391
7 392 399 360 425 414 415 417
4 394 346 347 395
5 396 326 355 327 397
5 398 348 349 360 399
5 400 328 371 442 443
7 402 342 343 326 396 436 403
6 404 335 309 366 367 405
5 406 323 166 337 407
6 408 370 330 393 381 409
5 410 322 323 406 411
5 412 329 330 370 413
6 414 383 361 381 393 415
6 417 416 428 238 319 392
5 418 263 262 334 419
6 420 401 364 365 434 421
5 422 372 250 286 423
5 424 382 383 414 425
5 426 423 286 287 427
6 428 416 329 412 377 429
6 430 391 273 388 389 431
5 432 394 395 384 433
6 434 365 437 386 387 435
6 436 396 397 440 386 437
6 438 401 420 385 373 439
6 440 397 327 324 325 441
6 442 345 364 401 438 443
5 444 390 391 430 445
6 446 429 377 328 400 447
4 448 374 375 449
CELL_TYPES 226
7
7
7
7
7
7
7
7
7
7
7
7
7
7
7
7
7
7
7
7
7
7
7
7
7
7
7
7
7
7
7
7
7
7
7
7
7
7
7
7
7
7
7
7
7
7
7
7
7
7
7
7
7
7
7
7
7
7
7
7
7
7
7
7
7
7
7
7
7
7
7
7
7
7
7
7
7
7
7
7
7
7
7
7
7
7
7
7
7
7
7
7
7
7
7
7
7
7
7
7
7
7
7
7
7
7
7
7
7
7
7
7
7
7
7
7
7
7
7
7
7
7
7
7
7
7
7
7
7
7
7
7
7
7
7
7
7
7
7
7
7
7
7
7
7
7
7
7
7
7
7
7
7
7
7
7
7
7
7
7
7
7
7
7
7
7
7
7
7
7
7
7
7
7
7
7
7
7
7
7
7
7
7
7
7
7
7
7
7
7
7
7
7
7
7
7
7
7
7
7
7
7
7
7
7
7
7
7
7
7
7
7
7
7
7
7
7
7
7
7
7
7
7
7
7
7
CELL_DATA 226
SCALARS cell_division_count float
LOOKUP_TABLE default
1
0
1
0
0
0
1
0
0
1
1
1
1
1
1
1
0
1
1
1
1
1
1
0
1
1
1
1
1
1
1
1
2
4
3
1
1
0
0
1
1
0
0
0
1
2
3
0
1
0
0
1
1
1
1
1
0
0
3
0
1
2
3
1
1
1
1
1
1
1
2
2
1
1
1
1
2
1
1
1
3
1
1
2
9
1
1
1
1
1
1
1
1
1
1
1
1
1
1
1
1
1
2
3
5
2
1
3
5
2
2
2
5
3
2
4
2
3
5
5
6
3
3
6
3
4
6
9
3
5
4
4
7
5
6
6
5
4
5
11
5
5
5
7
4
4
6
4
10
5
3
4
6
6
6
7
6
6
10
7
7
7
6
7
8
10
11
6
8
9
4
7
8
9
5
7
7
8
8
3
6
11
10
11
9
7
10
11
7
9
8
11
10
10
9
8
5
11
6
10
7
11
10
10
8
11
6
10
11
11
8
11
9
11
7
9
9
7
9
11
11
9
11
6
10
7
SCALARS cell_time float
LOOKUP_TABLE default
1271
2.22229e+13
1291
4.48239e+13
2.67348e+11
1.25633e+10
1301
2.68224e+09
9.19769e+11
1291
1291
1281
1251
1301
1221
1261
1.22728e+06
1301
1271
1301
1301
1201
1241
25083.4
1301
1301
1301
1301
1301
1191
1251
1191
1151
891
1041
1141
1281
1.00108e+18
2.94533e+15
1251
1241
106383
2645.76
1357.34
1231
1131
931
1348.01
1241
3999.01
1616.18
1221
1261
1271
1281
1251
1.12104e+13
22466.3
721
3337.96
1251
1171
991
1301
1301
1301
1301
1301
1301
1301
1181
1061
1301
1291
1291
1291
1121
1281
1281
1281
421
1271
1271
1131
51
1271
1261
1261
1251
1251
1251
1251
1251
1241
1241
1241
1231
1221
1221
1201
1191
1191
1181
1051
871
1151
1141
991
771
1131
1131
1131
421
711
1121
741
1061
1051
781
741
631
1011
991
621
991
711
721
411
931
781
911
911
1
721
611
641
841
621
811
101
781
781
771
471
761
741
511
491
141
721
711
711
711
701
641
441
631
621
171
51
221
431
21
361
431
11
111
511
501
51
491
471
471
341
451
301
441
161
431
421
151
91
291
51
371
361
201
51
91
71
111
161
281
261
51
251
251
121
231
231
221
41
201
171
161
161
151
141
121
111
111
101
101
91
91
71
51
51
51
51
51
51
41
21
11
1
SCALARS cell_area float
LOOKUP_TABLE default
3.24357
3.30154
3.29441
3.35813
3.35266
3.34482
3.32754
3.37793
3.35042
3.28238
3.33803
3.28632
3.38361
3.31988
3.30796
3.33182
3.40135
3.28892
3.34365
3.38938
3.38956
3.34162
3.34162
3.3735
3.35943
3.37409
3.42974
3.39965
3.39025
3.33081
3.25045
3.30117
3.34415
3.32161
3.43417
3.25394
3.3497
3.25471
3.26338
3.25089
3.24053
3.282
3.26486
3.28339
3.22451
3.29414
3.26706
3.26837
3.26373
3.25271
3.27213
3.27729
3.21933
3.25966
3.24691
3.24407
3.21187
3.22055
3.27758
3.20056
3.2492
3.3093
3.27957
3.2824
3.33929
3.29041
3.3893
3.3487
3.28539
3.35902
3.43679
3.34551
3.35581
3.28825
3.2479
3.2777
3.33966
3.35101
3.2358
3.22448
3.23285
3.26022
3.33199
3.32455
3.3268
3.22525
3.299
3.25498
3.36816
3.29051
3.22687
3.20558
3.21912
3.30649
3.25473
3.25042
3.26333
3.32628
3.26675
3.30221
3.29314
3.26847
3.38762
3.24381
3.29861
3.24879
3.32877
3.37114
3.29029
3.28277
3.27127
3.27706
3.28654
3.28733
3.25226
3.30085
3.35242
3.39146
3.26918
3.40666
3.29057
3.3474
3.28283
3.32759
3.38691
3.26978
3.41364
3.3554
3.22517
3.27237
3.32598
3.22067
3.29828
3.36233
3.31846
3.3357
3.33923
3.26224
3.3473
3.31622
3.26408
3.28288
3.31439
3.26599
3.27724
3.33503
3.37325
3.28071
3.2408
3.31447
3.30068
3.22819
3.33529
3.33489
3.37314
3.36223
3.33537
3.28882
3.32502
3.27515
3.29717
3.39322
3.28902
3.29571
3.32597
3.27677
3.29503
3.31245
3.28942
3.29802
3.28453
3.31647
3.37899
3.27809
3.27249
3.2343
3.3288
3.35067
3.35265
3.25503
3.30004
3.29026
3.37125
3.32928
3.34357
3.29406
3.37637
3.31157
3.29441
3.2875
3.27441
3.32006
3.32084
3.27919
3.31788
3.24718
3.22404
3.32543
3.22793
3.29882
3.2848
3.25312
3.36693
3.32158
3.2792
3.31165
3.29339
3.25619
3.30812
3.29865
3.27274
3.30707
3.24482
3.27586
3.28422
3.27834
3.27413
3.27491
3.31508
3.32047
3.29989
3.31569
3.29849
3.27703
3.27643
92
SCALARS cell_perimeter float
LOOKUP_TABLE default
6.92807
6.92989
6.98615
7.163
7.10288
6.83745
7.05302
7.51603
6.91795
6.94571
7.37367
6.99093
6.82573
7.17691
7.01417
6.78059
7.16093
6.96212
6.97213
7.18961
6.91113
7.17221
7.18738
7.4617
7.48031
6.91927
8.1865
6.95413
6.83702
7.02808
6.95968
6.97416
8.26379
7.02738
7.02157
7.25138
7.75648
7.50358
7.80265
7.61322
8.24486
8.61254
8.12943
7.69568
7.36408
8.94115
7.55871
7.48989
7.95874
7.60033
8.03591
8.35277
7.76445
8.05625
7.66262
7.20782
7.41959
7.37597
7.49003
7.31498
7.70468
8.90829
8.05848
7.03201
7.05345
7.18332
6.97337
7.00493
7.10493
6.89265
8.07136
7.00296
7.10005
7.10198
7.24811
7.19473
7.79468
7.18714
6.93709
7.86158
7.75861
6.78791
7.01386
8.04384
7.02629
7.96156
6.81905
7.95907
6.97626
6.98503
7.77396
7.31071
7.63235
7.06866
7.90735
7.8943
7.30677
6.90237
8.16652
7.11158
7.11624
6.90716
7.23759
7.72352
6.95256
6.99558
6.81687
7.08933
7.14968
8.27085
7.93001
8.23468
8.62181
7.15439
7.2264
7.06798
6.95268
7.83438
7.77777
6.8573
7.25318
7.14103
8.47548
7.26315
7.28882
7.41662
7.0148
6.95704
7.43456
6.95172
7.2644
7.53599
7.17158
7.46789
7.02439
7.22348
7.08941
7.13245
6.84349
6.97202
7.75845
6.7949
7.49866
7.28245
7.14264
7.16542
7.65317
7.89316
7.14295
7.13001
7.10929
7.37855
7.06752
7.22492
6.92666
6.86878
7.66801
7.03002
7.15217
7.28151
7.41758
7.2731
7.56185
7.28558
7.00502
6.99444
7.17596
7.37512
6.93683
6.82535
8.22055
7.65943
7.07014
6.91458
7.15157
7.33519
7.12996
7.06561
7.37818
7.58969
8.73847
6.81282
6.93926
6.98403
6.89938
7.33507
6.91143
6.88402
7.08567
6.84004
7.44574
7.04317
7.17012
6.8377
6.85857
6.90836
7.29309
7.33027
7.28856
6.95546
7.40365
7.25579
7.0813
7.02248
6.98026
7.13548
8.00921
7.1794
7.36516
6.98558
7.47901
6.92134
6.96509
6.95431
7.0741
6.81493
6.83529
7.28242
6.88066
7.01514
6.77289
7.09098
7.22493
7.45034
6.77595
78
SCALARS cell_frequency_modifier float
LOOKUP_TABLE default
1.71485e+17
1.13833e+14
3.81463e+13
3.54738e+13
9.09294e+12
5.38685e+11
8.16412e+08
3.1544e+10
6.7824e+12
2.10024e+13
3.65943e+10
3.8149e+10
1.04824e+07
2.8193e+08
1.32871e+11
1.30056e+12
1.99275e+10
2.28413e+08
5.8792e+06
47331.8
8.0906e+06
1.22746e+08
2.60737e+09
4.29573e+08
6.91925e+06
267451
28501.7
54219.9
1.83493e+06
7.86162e+06
1.13833e+11
2.51609e+06
103705
10410.1
409.754
9.00296e+07
1.93365e+06
4.61326e+18
8.49932e+17
6.45269e+16
1.07972e+14
3.62823e+11
2.53552e+12
5.9107e+08
3.1166e+09
93194.9
84897.5
3.14554e+07
2.65926e+08
1.55642e+11
7.06326e+11
4.68736e+11
2.00368e+16
4.92294e+17
7.18641e+18
10000
1.65014e+16
4.03946e+11
60.5592
2.32207e+10
1.96167e+15
15866.8
15036
2.19138e+11
9.42755e+08
1.23682e+09
31981.2
440003
3.92551e+07
339795
5542.1
6249.97
385914
3.01539e+12
6.41638e+13
3.70436e+10
13336.2
2.48688e+08
5.68018e+09
4.18223e+18
1747.73
3.02919e+17
875961
32907.3
0.954724
3.45809e+17
2.29467e+11
4.27812e+16
491600
9.949e+07
5.15339e+17
10000
4.05299e+14
5.70398e+08
6.4782e+14
1.48956e+09
2.7247e+08
1.05194e+10
2.46896e+13
9.67133e+07
1.73831e+08
1.45233e+09
4151.45
730608
133.46
1.22442e+08
167154
490.078
1828.89
917091
7079.06
1.37255e+06
19.7281
17279.5
1.27258e+07
1781.7
30261.5
3600.71
157385
69.6365
7.26497
3460.49
35789.5
76.0222
685.403
317.099
33.2256
12.1789
21291.7
42207
949.963
13098.7
1.10161
713.264
24.0842
483.229
168.888
100.005
223.778
0.62344
44491.2
666.217
4088.88
1248.19
29.677
2452.56
37.8343
55.6943
140.025
419.226
2613.82
182.645
39.6991
55.0453
67.5226
6.54084
42.1768
680.401
1.03061
105.53
1.02958
8.46667
2.94087
18.4975
12.4898
106.649
1.54208
232.891
3.71321
1.25357
70.2036
20.8011
6.88743
7.53021
154.262
100.436
23.7406
2.81583
11.5189
4558.91
5.46363
1.61185
2.80905
1.14795
5.30985
59.1199
0.827842
0.689982
1.46657
1.72159
113.165
3.82222
2.33596
5.67954
2.26883
102.194
106.068
0.605087
146.82
9.2077
2.09817
126.167
2.17983
2.96274
15.227
2.27483
4.16363
188.208
1.77555
0.898581
138.833
0.964422
114.823
178.378
3.62515
6.75391
119.34
117.229
1.35389
2.4365
0.856178
5.57068
1.248
124.685
102.414
1
SCALARS cell_area_modifier float
LOOKUP_TABLE default
100
0.769231
1.05882
0.358566
0.367347
0.403587
0.502793
0.322581
0.382979
3.33333
0.439024
1.91489
0.318021
0.588235
0.72
0.471204
0.29703
1.52542
0.410959
0.309278
0.307167
0.418605
0.422535
0.32967
0.352941
0.327273
0.291262
0.299003
0.305085
0.47619
100
0.782609
0.40724
0.552147
0.289389
100
0.386266
100
100
100
100
3.6
100
2.43243
100
1.11111
100
100
100
100
100
12.8571
100
100
100
100
100
100
10
100
100
0.697674
4.28571
3.10345
0.430622
1.30435
0.311419
0.38961
2
0.355731
0.28754
0.4
0.361446
1.63636
100
8.18182
0.42654
0.376569
100
100
100
100
0.466321
0.545455
0.508475
100
0.857143
100
0.342205
1.26761
100
100
100
0.743802
100
100
100
0.514286
100
0.756303
1.2
100
0.313589
100
0.909091
100
0.491803
0.339623
1.34328
2.90323
100
30
1.83673
1.76471
100
0.79646
0.373444
0.30303
100
0.295082
1.23288
0.393013
2.72727
0.497238
0.315789
100
0.29316
0.364372
100
100
0.520231
100
0.947368
0.34749
0.596026
0.44335
0.434783
100
0.396476
0.62069
100
2.57143
0.656934
100
18
0.456853
0.332103
3.91304
100
0.647482
0.810811
100
0.452261
0.461538
0.334572
0.350195
0.447761
1.57895
0.538922
100
0.989011
0.301003
1.47541
1.01124
0.526316
100
1.03448
0.666667
1.42857
0.967742
2.19512
0.612245
0.320285
6.92308
100
100
0.486486
0.379747
0.37037
100
0.825688
1.38462
0.337079
0.481283
0.414747
1.13924
0.32491
0.687023
1.08434
1.69811
100
0.580645
0.566038
5.29412
0.604027
100
100
0.532544
100
0.873786
2.09302
100
0.344828
0.559006
4.73684
0.676692
1.16883
100
0.708661
0.891089
100
0.731707
100
100
2.30769
6
100
100
0.638298
0.573248
0.841121
0.629371
0.927835
90
100
1
SCALARS cell_Gaussian_modifier float
LOOKUP_TABLE default
1.71485e+15
1.47983e+14
3.6027e+13
9.89324e+13
2.4753e+13
1.33474e+12
1.62375e+09
9.77864e+10
1.77096e+13
6.30073e+12
8.33536e+10
1.99223e+10
3.29613e+07
4.79281e+08
1.84542e+11
2.76008e+12
6.70892e+10
1.49738e+08
1.43061e+07
153039
2.63394e+07
2.93227e+08
6.17077e+09
1.30304e+09
1.96045e+07
817212
97855.7
181336
6.0145e+06
1.65094e+07
1.13833e+09
3.215e+06
254652
18853.8
1415.93
900296
5.00599e+06
4.61326e+16
8.49932e+15
6.45269e+14
1.07972e+12
1.00784e+11
2.53552e+10
2.42995e+08
3.1166e+07
83875.4
848.975
314554
2.65926e+06
1.55642e+09
7.06326e+09
3.64573e+10
2.00368e+14
4.92294e+15
7.18641e+16
100
1.65014e+14
4.03946e+09
6.05592
2.32207e+08
1.96167e+13
22742.4
3508.4
7.06112e+10
2.18929e+09
9.48232e+08
102695
1.12934e+06
1.96276e+07
955200
19274.2
15624.9
1.0677e+06
1.84274e+12
6.41638e+11
4.52755e+09
31265.9
6.60405e+08
5.68018e+07
4.18223e+16
17.4773
3.02919e+15
1.87845e+06
60330.1
1.87762
3.45809e+15
2.67711e+11
4.27812e+14
1.43656e+06
7.84866e+07
5.15339e+15
100
4.05299e+12
7.66868e+08
6.4782e+12
1.48956e+07
2.7247e+06
2.04545e+10
2.46896e+11
1.27876e+08
1.44859e+08
1.45233e+07
13238.5
7306.08
146.806
1.22442e+06
339879
1443.01
1361.51
315887
70.7906
45751.6
10.7409
9791.74
127258
2237.03
81033.7
11882.3
1573.85
235.99
5.8927
8805.02
13122.8
152.889
2170.44
3.17099
113.336
33.4243
212.917
422.07
1826.04
130.987
1.16281
2052.62
40.4079
1089.95
388.442
1.00005
564.418
1.00443
444.912
259.084
6224.19
12.4819
1.64872
5368.38
113.923
14.233
1.40025
647.471
3223.72
1.82645
87.7791
119.265
201.818
18.6777
94.1949
430.921
1.91235
1.0553
1.04102
28.1282
1.99326
18.2919
23.7306
1.06649
1.49068
349.337
2.59925
1.29536
31.9816
33.9751
21.5041
1.0877
1.54262
1.00436
48.8001
7.41503
31.101
45.5891
6.61707
1.16411
8.33352
2.38518
12.8026
51.8941
2.54791
1.00431
1.3525
1.01382
1.13165
6.58271
4.12686
1.0728
3.75618
1.02194
1.06068
1.13622
1.4682
10.5377
1.00246
1.26167
6.32151
5.30001
3.2146
3.3617
3.56221
1.88208
2.50549
1.00841
1.38833
1.31804
1.14823
1.78378
1.5709
1.12565
1.1934
1.17229
2.1211
4.25033
1.0179
8.85118
1.34507
1.38539
1.02414
1
