# vtk DataFile Version 3.0
2D-vertex
ASCII
DATASET UNSTRUCTURED_GRID

POINTS 862 float
0.457128 -3.81056 0
2.90651 -3.61962 0
3.30189 -2.67286 0
2.28281 -1.59744 0
0.0177036 -1.43619 0
-0.71065 -2.92148 0
3.82967 -2.64246 0
4.40903 -1.79181 0
3.48633 -0.269455 0
2.4384 -0.576478 0
1.27316 0.691399 0
-0.411384 1.17839 0
-1.18387 -0.0922918 0
-1.33935 -0.1297 0
-1.86785 -1.79724 0
-1.36359 -2.6855 0
4.979 -1.95264 0
5.79578 -1.07737 0
3.97042 0.472894 0
3.70063 0.408026 0
2.82955 1.3735 0
1.7644 1.29341 0
1.13559 4.9245 0
0.27985 4.90513 0
-0.552209 3.03326 0
-1.76745 2.1278 0
-1.69426 0.221072 0
-2.98707 -0.0623982 0
-3.50617 -1.09397 0
-3.20863 -1.80671 0
6.86371 -1.07211 0
7.48913 -0.352289 0
7.31996 0.961627 0
5.11044 2.1482 0
5.58202 2.7254 0
3.24451 4.07541 0
2.4888 5.36692 0
1.60312 5.52989 0
0.695424 8.71393 0
-0.895303 8.76629 0
-0.589866 5.72142 0
-2.09649 4.78744 0
-3.15523 3.24497 0
-4.11138 3.28296 0
-4.85619 1.87365 0
-6.2668 1.57123 0
-6.55861 0.506165 0
-5.05127 -0.853455 0
7.74445 1.58541 0
7.40641 2.62958 0
6.65614 3.05512 0
5.92894 5.12301 0
3.58771 6.32935 0
3.52112 7.20041 0
2.08173 8.82518 0
2.62174 9.52899 0
-1.86188 10.1405 0
-1.76952 9.23418 0
-3.01297 7.90333 0
-2.69178 5.75342 0
-4.32437 6.0674 0
-5.71181 4.7534 0
-7.63588 3.26613 0
-7.49434 2.7326 0
8.3239 3.0356 0
8.32387 3.0381 0
6.84312 5.09676 0
7.28191 6.29587 0
6.0177 7.57758 0
6.2308 8.25823 0
5.44662 9.28033 0
5.18183 9.78872 0
-2.58488 12.4368 0
-2.83877 12.1095 0
-6.03227 9.2115 0
-5.36193 8.424 0
-6.08687 7.05084 0
-6.00428 6.88703 0
-8.61974 3.77487 0
-8.47046 3.42294 0
9.85737 3.34078 0
10.1759 4.29367 0
9.37366 5.27912 0
10.5427 5.70202 0
10.2393 7.22646 0
10.4286 7.93556 0
9.64286 12.5803 0
10.6617 14.6632 0
-9.6292 14.2375 0
-9.62881 14.2351 0
-10.0118 8.36385 0
-9.71959 7.84563 0
-10.0621 7.21083 0
-9.32187 6.11769 0
-10.1382 4.86154 0
-9.67843 3.88207 0
3.82833 -5.47461 0
5.03038 -4.92078 0
5.8644 -4.51109 0
8.20596 -2.90288 0
9.48877 -1.45856 0
10.8046 0.88705 0
10.896 1.05666 0
11.5883 2.13301 0
12.3601 4.06689 0
12.5641 4.85331 0
12.7182 8.37465 0
13.2575 15.078 0
-13.2156 14.6845 0
-12.6161 8.3196 0
-12.5302 7.04447 0
-12.1545 4.50485 0
-11.2774 2.56698 0
-10.4147 1.47067 0
-9.8085 0.75202 0
-8.89874 -0.565976 0
-6.95935 -2.69221 0
-4.87834 -4.08039 0
-2.77264 -5.06142 0
0.234123 -5.85897 0
12.5721 9.86154 0
8.48753 10.0491 0
-12.8939 10.7763 0
-9.99431 11.6186 0
-0.300179 2.6945 0
0.993466 2.79552 0
-1.84151 4.75599 0
-1.08566 3.02462 0
4.50124 4.27802 0
4.90322 5.20133 0
0.39172 10.3144 0
0.16919 9.21007 0
-1.10329 7.07226 0
-2.28926 6.77643 0
5.92797 5.1253 0
5.08901 7.10054 0
4.11262 7.60106 0
4.11963 8.96037 0
2.10414 10.5463 0
2.10213 10.5448 0
-2.36094 10.3691 0
-3.92594 8.60819 0
-3.48108 7.91793 0
-4.44925 6.65332 0
1.39461 0.0474055 0
-0.0507392 -0.953501 0
6.49551 1.20451 0
5.40963 -0.337875 0
5.10843 2.14967 0
3.0846 2.95627 0
-8.88068 10.0005 0
-5.84746 9.90424 0
3.08211 2.95633 0
1.6501 3.6299 0
-9.33644 6.05814 0
-7.92588 5.45137 0
-0.741185 -2.93724 0
-1.14219 -5.62581 0
14.8649 31.838 0
17.1339 32.1036 0
1.2666 -3.4636 0
1.36896 -2.00692 0
2.51633 7.58147 0
1.34278 6.55475 0
8.30902 9.57022 0
5.44687 9.28283 0
9.01307 20.3184 0
-0.0266201 12.2475 0
-2.65031 -2.06078 0
-3.34551 -4.82321 0
-4.28442 0.955144 0
-5.17587 -0.230909 0
-5.52522 -3.7039 0
-4.46235 -1.24597 0
0.414341 7.02644 0
-0.499254 6.59332 0
9.34392 5.13807 0
7.75701 4.34129 0
5.61302 -1.61104 0
7.34511 -3.59795 0
1.78794 -5.92019 0
1.81264 -3.89263 0
-6.12471 -0.1126 0
-7.71584 -2.00125 0
-5.31037 3.656 0
-6.63563 2.40811 0
7.58322 1.09385 0
10.0565 -0.572269 0
-12.4044 5.89344 0
-9.3466 6.07707 0
12.8371 6.89709 0
10.7405 6.70991 0
-2.72831 2.30706 0
-3.63764 0.945905 0
-9.38701 0.185935 0
-6.62208 1.83755 0
-3.52008 5.55999 0
-4.27671 3.57653 0
-6.75733 5.63917 0
-6.33673 4.84261 0
8.2539 6.46477 0
8.45945 6.9472 0
-0.865678 12.0913 0
-0.644791 10.9919 0
12.5766 9.87054 0
9.92353 11.1709 0
9.81277 13.4664 0
1.80135 11.1044 0
7.8518 8.21574 0
9.07004 8.92621 0
-7.23235 7.14937 0
-7.5725 7.90138 0
-2.31563 14.384 0
0.706065 13.55 0
-9.92958 12.1159 0
-4.06642 11.953 0
9.0687 8.92834 0
12.5906 9.40378 0
-10.7207 13.2679 0
-13.2701 13.6942 0
-12.6689 9.2958 0
-9.14252 9.56286 0
12.7507 17.8288 0
10.1068 16.1745 0
8.16514 10.4897 0
6.03536 10.68 0
-9.14258 9.56033 0
-7.25888 8.87009 0
2.18039 14.0703 0
3.92719 12.4281 0
-4.36691 10.3734 0
-3.59668 9.71235 0
4.65407 12.1693 0
3.74291 10.6411 0
12.9296 11.5535 0
10.1328 11.7099 0
-2.93177 13.9642 0
-4.51741 12.9132 0
-13.333 26.7645 0
-0.0321938 15.1433 0
-6.44099 10.4549 0
-4.38958 12.174 0
-12.7477 10.0081 0
-9.33759 10.6 0
5.81666 16.2169 0
7.9701 14.3132 0
-1.18866 13.9142 0
-0.691533 12.295 0
-10.3945 17.5169 0
-13.5318 16.5875 0
15.1367 38.6967 0
2.11153 15.1475 0
-3.0421 16.5883 0
-10.3282 17.9068 0
-10.6759 12.5955 0
-13.1237 11.8063 0
-6.54039 14.2342 0
-5.98462 13.1293 0
-6.3162 11.1913 0
-7.13452 12.1273 0
13.1781 13.2499 0
10.6043 14.019 0
-11.2003 19.0661 0
-14.1092 19.1156 0
5.82867 11.7776 0
4.65555 12.1637 0
10.0235 15.3409 0
8.03085 14.8982 0
3.75878 13.5628 0
6.43142 15.6071 0
-2.1283 15.8115 0
-0.597573 16.1282 0
14.1472 20.4405 0
11.4824 21.4624 0
0.130011 15.1106 0
1.08481 15.8242 0
12.2061 23.2371 0
3.75579 15.6998 0
13.0352 12.3866 0
9.94018 12.9483 0
-8.39044 13.7309 0
-8.41989 12.8653 0
-9.23561 10.9354 0
-7.13914 11.7553 0
-9.9684 17.1094 0
-6.162 16.0064 0
11.9404 43.3959 0
12.732 44.9859 0
1.57145 13.4375 0
2.35956 11.9019 0
-3.93421 15.5958 0
-3.83931 14.4217 0
-13.3497 15.7951 0
-10.1692 16.4566 0
-0.297251 17.6371 0
-0.403875 17.5657 0
7.50659 12.6735 0
7.0891 13.5809 0
8.40903 11.0028 0
7.36717 12.3909 0
-11.1573 18.4628 0
-13.7747 17.4438 0
-2.69187 16.583 0
-1.72918 17.9961 0
1.38363 16.9247 0
3.05202 16.9057 0
6.05236 13.7508 0
5.78549 14.3342 0
-7.44404 17.3563 0
-7.22717 17.7784 0
-9.07495 14.9801 0
-6.37042 15.1993 0
3.73555 15.6522 0
4.48977 14.4206 0
-10.6146 20.9952 0
-3.88514 17.8671 0
14.6576 21.5338 0
12.3869 22.4204 0
-16.2261 26.0934 0
-13.8937 26.0352 0
8.24816 16.7014 0
7.36344 15.706 0
12.7688 18.1837 0
9.13808 19.4889 0
3.84295 18.1831 0
5.66737 18.8456 0
1.09427 19.5099 0
3.22612 18.6359 0
-0.956619 25.3507 0
-3.59072 24.0566 0
-3.23057 22.3858 0
-4.52504 19.7429 0
-6.16513 14.9158 0
-4.02977 14.3121 0
-9.80354 19.8794 0
-8.25064 18.7793 0
7.72201 23.4235 0
7.03042 20.6232 0
-13.2284 15.0354 0
-9.43317 15.5089 0
-9.39845 15.5981 0
-7.19864 16.5962 0
-0.274773 19.7304 0
-0.0426295 19.4346 0
14.5433 30.8382 0
2.12863 22.8242 0
16.9087 27.5993 0
14.8618 27.7842 0
-15.0465 21.2365 0
-12.346 21.8021 0
-5.35297 16.3563 0
-5.1738 17.5532 0
7.76168 17.5086 0
6.5937 17.4864 0
1.1753 17.2636 0
1.77596 18.3302 0
10.2672 15.8159 0
13.1614 16.0567 0
12.7195 17.9657 0
8.2558 17.0235 0
-11.9215 22.7497 0
-4.50271 20.0333 0
-2.20151 18.972 0
-3.53624 18.8467 0
3.65915 23.2245 0
4.26757 22.5663 0
-5.79354 18.1051 0
-5.66127 19.1956 0
3.84901 17.6868 0
5.84285 16.7447 0
-1.93945 22.222 0
-0.32538 23.547 0
2.01684 28.3185 0
12.2738 30.6713 0
-9.98217 42.5986 0
-11.5327 43.8023 0
-3.9289 45.3365 0
-2.58483 24.8745 0
-14.3221 19.5608 0
-12.098 21.3085 0
-1.81223 19.6368 0
-3.55938 20.6529 0
-7.46037 20.8459 0
-5.93927 21.1123 0
13.2298 26.563 0
11.7985 29.473 0
4.85331 20.9439 0
6.50983 21.2931 0
11.452 21.5631 0
8.50608 22.3258 0
13.2039 18.9256 0
11.1775 21.0534 0
-13.479 25.0921 0
-3.79134 21.8459 0
16.3051 25.618 0
14.4619 26.7759 0
2.22325 20.5728 0
3.4086 19.7918 0
-15.6567 22.8809 0
-13.5259 23.9585 0
-1.83834 26.9648 0
4.03111 24.3783 0
0.239874 21.0655 0
1.83492 21.4863 0
-8.24236 18.8716 0
-6.93444 19.7846 0
8.17377 18.6271 0
6.65278 19.4544 0
-1.48715 21.4394 0
-2.18017 20.3492 0
12.7171 17.9758 0
8.26538 18.3464 0
-2.65303 24.5707 0
-1.41439 23.324 0
-5.84594 21.6681 0
-4.85037 22.2405 0
-4.58894 24.3224 0
-5.17353 23.6082 0
-14.1146 19.1241 0
-10.5567 20.6401 0
5.4597 24.4645 0
6.05991 23.3725 0
-0.266909 29.5465 0
3.95388 45.6431 0
-8.24876 21.8229 0
-7.9134 22.8889 0
1.74789 46.6295 0
1.54283 48.4517 0
-10.1303 28.2 0
-7.82079 30.325 0
9.61803 20.7997 0
8.38546 21.983 0
15.1272 22.5931 0
12.6752 23.6349 0
5.78962 22.8144 0
6.6589 21.6793 0
2.26171 21.1415 0
4.03391 21.7594 0
3.41422 24.9745 0
5.31673 28.4479 0
4.67476 20.24 0
5.7634 19.189 0
1.69851 23.2349 0
1.95782 24.4473 0
12.9047 18.4788 0
9.59459 20.643 0
-5.63787 36.5518 0
-4.50085 31.8579 0
-13.774 28.48 0
-16.2931 28.4295 0
-0.159877 21.5477 0
0.304573 22.8721 0
-7.30064 23.0319 0
-6.97482 23.7618 0
-9.788 20.2588 0
-7.46023 20.8434 0
8.97334 25.8101 0
9.95412 24.0498 0
-16.126 24.7476 0
-13.7314 24.7756 0
-7.39752 24.5573 0
-7.36339 26.1308 0
4.40254 32.468 0
8.58868 31.3478 0
-13.8035 30.5433 0
-9.74391 29.1754 0
8.81047 26.2836 0
5.82777 27.3949 0
2.45698 27.9275 0
1.40775 26.1905 0
-4.79848 26.0904 0
-4.69978 26.1451 0
13.1429 42.4401 0
14.4829 43.4659 0
-0.0644634 24.5274 0
1.29097 24.9988 0
-9.48573 23.808 0
-9.61376 24.2763 0
5.24451 37.338 0
4.94516 42.9609 0
-3.27229 25.7615 0
-2.7016 26.8552 0
14.5988 28.1969 0
12.4382 28.3279 0
-7.84208 44.7279 0
-8.40408 46.3483 0
-9.15042 43.0326 0
-7.03522 35.4517 0
10.2122 23.5499 0
9.78966 22.5731 0
-10.5787 26.368 0
-9.09493 24.8279 0
12.9797 25.9763 0
10.6114 25.4834 0
-1.86512 38.0437 0
-0.579326 31.1201 0
-9.88823 21.7949 0
-10.3553 22.833 0
17.0819 29.1956 0
15.1105 29.1969 0
15.5454 23.5085 0
13.2811 24.7679 0
15.24 36.1917 0
12.5172 34.7503 0
-1.78156 29.5601 0
-1.42278 27.8878 0
-13.5202 36.4158 0
-15.3838 36.5771 0
3.49374 25.87 0
2.29231 26.6328 0
7.92976 30.3049 0
7.30539 27.2293 0
6.0315 25.0986 0
5.02124 26.0093 0
-5.97178 29.31 0
-5.35131 29.9139 0
8.19204 24.1882 0
7.99907 24.6285 0
6.00038 30.0891 0
6.06616 32.6432 0
-13.6696 28.6778 0
-10.744 28.0927 0
15.6036 38.4733 0
17.1987 39.2518 0
-8.80042 27.2305 0
-5.87254 28.5958 0
-11.4109 38.7505 0
-9.56257 34.3674 0
3.2025 31.8402 0
2.61786 32.204 0
-16.2626 27.3068 0
-13.5467 27.244 0
-16.2924 29.9165 0
-14.3301 29.8205 0
-0.780541 40.0762 0
1.80214 42.1188 0
[...]
CELL_DATA 1293
SCALARS current_Length float
LOOKUP_TABLE default
0.880697
1.026
1.48157
1.46684
1.65426
1.46771
0.528649
1.02921
1.78015
1.09198
1.03275
1.21602
1.75352
1.48707
0.487518
0.159917
1.74929
1.02142
0.0343627
0.592229
0.564102
0.834244
0.277478
0.710567
1.30035
1.06816
0.776999
1.06177
0.855959
2.04846
0.422229
0.533519
1.90813
0.498997
1.32353
1.15482
0.772356
0.825648
1.06795
0.953563
1.32476
0.85948
2.0264
0.00249763
1.27296
1.60285
1.49636
0.900544
0.764907
1.0574
0.723241
0.876598
1.19278
1.58071
1.87087
0.977441
0.956906
1.59401
1.19996
1.44267
1.10431
0.634892
0.707743
0.517324
1.09753
0.862553
1.12359
2.19202
1.73292
1.46078
0.873601
1.07462
1.39077
0.887099
1.14097
0.910976
0.991554
1.82135
1.09935
1.13468
0.850587
1.91091
0.336923
0.631254
0.551984
0.570719
1.0033
0.00249999
1.42114
0.00248832
1.27688
1.80027
0.714417
0.713224
1.28826
1.60219
0.00251563
1.67244
0.414253
0.548962
1.23757
1.03417
0.468337
1.55277
0.183457
0.599077
1.45748
0.382286
0.849183
1.56309
1.00472
1.1854
0.986554
1.24322
1.02712
1.62156
0.733929
0.994549
1.23405
0.473078
1.34359
0.00250605
1.33447
0.887156
0.594901
2.14782
0.721321
1.32021
2.33033
0.0475563
1.082
1.06411
2.07141
1.3235
2.57536
0.929216
2.70732
1.10643
2.27009
2.28526
1.63993
3.13886
0.192663
3.24532
1.27977
2.11067
2.19599
0.812443
2.19231
2.06193
2.3313
0.45813
2.62874
3.61414
1.05531
2.60477
1.27803
2.47362
1.15787
2.04768
2.07034
1.39507
2.75524
0.940172
3.04599
0.705765
2.57404
2.64986
1.75506
2.82091
0.620429
2.76232
1.39592
2.06052
1.55502
1.93175
2.0822
0.813038
2.12713
1.02455
0.0100801
0.545955
4.08887
0.781998
1.02099
3.01948
1.52019
1.68839
1.29758
0.256911
1.12656
1.88917
1.89175
1.02871
1.00702
1.23824
1.1533
1.12656
1.70675
1.33928
1.22231
0.91559
1.04405
2.14603
1.09721
1.36502
1.35932
0.63497
1.72585
0.00250166
1.80477
1.44775
1.39944
0.821196
1.5725
1.59267
0.655346
1.42326
1.75808
1.676
1.65187
1.88629
0.745484
1.13051
2.17864
0.510012
0.716968
2.48165
0.00249815
1.3931
1.58251
1.44035
1.81441
1.53553
0.671382
1.72537
2.71831
0.930924
1.81904
2.28447
0.694424
1.0014
1.46027
1.31746
1.0414
1.55928
0.511033
0.571109
2.87655
0.665985
0.666608
2.00594
0.613415
1.70334
2.84856
1.08193
0.956182
1.48372
0.748465
0.968183
2.67789
1.71074
0.770866
1.01107
0.14415
1.18573
1.77571
0.720183
1.73963
2.6359
2.08847
1.12743
2.0277
0.755742
1.85991
2.46956
1.16852
0.917973
1.82032
0.294604
1.05252
2.9821
1.4109
0.0214743
3.06335
1.48234
0.719731
2.10492
1.0305
0.64684
1.63696
0.896537
0.444014
3.22067
0.950966
1.03671
2.12288
1.18355
2.04281
0.900785
1.63084
1.80166
0.524394
1.75357
1.48532
1.12145
1.71956
0.578204
2.95466
0.965389
2.15597
2.0279
1.40657
1.68141
1.41027
1.14971
1.27324
0.825356
1.56623
1.49443
0.16548
0.501466
1.60799
0.750092
0.00251367
1.037
3.55389
1.4587
0.991795
2.5848
0.977622
0.00252237
3.53643
0.140459
1.93187
3.11882
0.568181
1.11694
2.13827
1.47886
1.01822
2.00618
0.878188
1.65359
1.65796
1.55309
1.15221
1.015
0.771593
1.64151
1.77515
0.83976
0.998816
2.80111
0.745571
1.48305
1.01633
0.589587
1.68763
1.45051
0.809654
0.391501
0.746834
0.716655
0.75378
3.46112
2.12475
2.111
0.588214
1.22095
0.267983
1.69382
0.39549
0.890142
3.27208
0.974441
1.07943
1.51917
0.35027
0.998292
1.43155
0.673824
1.89359
2.57186
1.9173
1.48218
1.23678
2.16281
1.52521
0.372081
1.82987
0.646716
2.68619
0.919865
1.1231
2.90933
1.65622
0.00577449
1.23501
0.392815
0.865905
2.04126
1.14711
1.0478
1.2986
1.43978
1.13563
1.56315
1.20657
0.105113
2.85406
1.66351
1.22965
1.192
0.615131
0.0518101
2.01828
0.875037
0.533557
3.1456
1.33707
1.68549
0.866031
0.350512
0.997653
2.25108
0.682977
0.833611
2.53641
1.53614
2.31863
1.77617
0.872666
0.97348
1.72601
0.881426
0.219752
1.17798
0.769335
1.15368
3.24864
1.36975
1.30145
0.128291
2.1383
1.14557
0.998855
1.52381
0.315157
1.73554
0.604829
1.7049
2.80876
0.955427
1.39344
1.70986
1.14034
1.39617
1.6685
1.05056
1.42745
0.64156
0.79877
1.53171
0.47456
0.926583
0.34998
2.7134
1.70062
1.12704
1.44412
0.359832
1.47039
1.03985
1.15878
0.83639
2.43768
1.34947
1.03031
2.33316
0.322202
0.937243
1.33178
0.324838
0.838929
3.85813
0.496287
1.05539
1.94097
1.13939
0.765167
1.36247
1.43193
1.03298
1.69641
1.70925
1.08036
1.12863
0.778131
1.48144
2.21909
1.61632
2.25335
1.85825
1.66288
0.92812
1.75306
0.351074
0.638756
3.82466
0.0957168
1.19264
2.41562
1.08416
1.81547
0.376036
1.05032
1.21398
2.27565
1.60569
0.489456
2.05525
1.82555
0.552458
2.75908
1.6097
1.32633
1.21031
0.977539
1.64484
1.16819
0.397862
1.48203
1.22409
0.533851
0.983399
2.90427
0.0103187
0.69243
4.56204
1.03827
0.291205
1.56835
0.770351
1.33454
1.34061
1.58201
0.840107
0.89633
0.829872
1.26117
1.09847
1.11599
0.528403
2.20524
1.33169
0.923191
1.11161
1.51471
0.500689
0.235228
0.490886
2.37114
1.96292
1.55195
0.311411
1.61678
0.483544
1.51608
2.8286
1.54031
0.778396
0.801875
0.00250983
1.79667
1.54425
1.25036
1.28917
1.72869
0.726184
0.848369
1.69293
1.26853
1.34899
1.94508
1.7846
0.510166
2.93843
0.404833
1.21535
1.40541
2.07113
1.08463
2.17678
1.55065
1.17023
1.41954
0.991629
1.35878
2.38779
1.4455
1.21221
1.19739
1.4308
0.548632
1.64963
0.092619
1.4028
1.59507
1.29327
1.22833
1.73142
0.90396
1.41225
1.29178
0.214306
0.29527
4.46709
1.06934
1.22063
1.7574
0.563605
1.13015
1.14836
0.622995
0.672618
0.922881
0.0100741
0.858078
3.86744
1.43119
0.620076
1.2461
1.5372
0.497892
1.32288
1.2554
0.629217
1.1175
1.29162
2.17891
1.8337
1.64579
0.0813988
1.61081
1.57995
0.363424
1.70864
1.00638
0.771779
2.66411
1.54213
0.413975
1.42972
0.570001
1.15607
1.87681
0.857908
0.49773
0.899076
1.34314
0.356641
1.51316
0.594712
1.54888
1.23983
0.537745
0.158385
3.95485
0.333071
1.32831
1.16021
1.18638
1.39605
2.51959
0.626367
1.44037
1.4035
1.99396
1.80782
0.799322
0.379674
1.18219
2.40006
0.85386
0.897587
1.28032
1.92477
0.842461
2.39482
0.900838
1.87214
0.67685
1.06269
1.23367
0.526621
0.894307
1.04908
2.11593
0.242754
1.1705
1.29616
0.588716
1.22775
0.989003
0.899985
1.47813
0.112828
1.19615
1.53967
1.68758
1.01453
0.865346
1.43507
1.82124
1.71885
0.485501
0.292404
0.607926
1.25161
1.12224
0.870189
1.23359
1.12329
0.791198
2.16452
1.11327
1.50748
1.71511
0.938166
0.969249
0.206256
0.562649
1.30718
1.06427
0.678986
0.757281
1.17145
0.637778
1.67028
1.85679
1.51885
1.60272
1.8063
1.6397
1.30641
1.13839
1.4815
0.917871
1.9714
1.83001
0.676766
2.59098
0.517615
1.4271
0.697521
1.45213
1.01223
0.713742
0.51744
1.78691
1.87063
0.607438
1.30515
1.42312
1.03941
1.48687
1.06229
2.02295
1.60323
0.088846
0.721085
1.11615
0.865825
1.7675
1.53146
0.480733
1.94141
1.73642
0.232047
0.223677
0.590493
1.95999
1.47832
2.27754
1.77491
1.40931
1.41495
1.54749
0.580788
1.09889
1.43039
1.35434
0.910244
0.688612
1.21397
0.52499
2.71658
1.48708
1.31983
1.96466
1.76895
0.10083
0.845354
1.62178
1.73082
0.334028
1.56294
1.56679
0.965308
0.620605
1.78941
0.893402
0.679424
1.25566
0.907442
0.00250098
1.76041
1.50236
0.583242
0.925035
1.61092
1.31147
1.114
2.02582
1.85546
0.771424
1.40797
0.775925
0.454192
1.95556
0.234596
1.39217
1.75108
0.789478
1.51266
1.41001
2.3361
2.16227
0.900256
1.27723
1.2564
1.12169
0.647124
1.24271
1.47533
0.762768
0.551634
3.1897
1.19098
1.0625
0.66266
1.56317
2.34151
1.7027
0.412135
0.714984
2.73741
0.668911
1.31903
1.92281
1.70097
1.56999
1.05296
1.75311
1.72017
0.890309
0.67748
1.02131
1.71875
0.465975
1.26716
2.28925
0.00250243
1.4653
0.526173
1.55478
0.707898
2.13118
1.00023
1.08388
1.15116
1.02139
1.20301
1.05344
0.723311
0.950983
0.585511
1.36685
0.4657
0.932454
1.42727
0.393599
2.34547
1.30158
0.772369
1.00162
1.00599
1.08566
1.97833
1.2157
1.28818
0.914174
1.12977
1.09087
2.2907
1.04029
1.24141
2.09504
0.837697
1.18484
2.07528
0.720811
1.29133
2.04514
1.04437
1.94314
2.11868
0.973156
1.54304
1.3377
1.06899
1.54977
0.255146
0.648409
0.615893
2.40542
1.63268
1.4072
0.544378
0.793125
0.987348
1.47949
1.77926
1.73177
1.21063
0.982818
1.22137
1.18336
0.341789
1.00877
1.88569
1.39078
1.82305
1.24147
0.446306
0.823138
1.4662
0.476956
0.564232
0.263642
1.42964
0.650792
0.892139
1.44721
0.383421
1.92953
1.22753
0.982288
0.944149
1.69103
0.864673
1.68104
1.51914
0.91538
2.04731
1.67824
1.00844
1.35676
1.42705
1.53104
0.590557
2.05615
1.40904
1.07456
0.738359
1.1567
1.4241
1.22675
0.884774
1.30058
1.21796
0.7044
0.862678
1.41051
0.631722
1.51413
0.632075
1.75783
1.72474
1.33824
1.88122
1.61188
2.04087
1.16097
2.10316
1.73387
1.50046
0.519842
0.973156
0.687898
1.16631
0.778896
0.851069
1.39271
2.03402
1.62287
0.170897
1.93949
2.10352
1.63738
1.21633
1.14165
0.696351
1.72579
1.14946
1.12055
1.69762
1.70433
0.810839
1.35369
0.789337
1.21116
1.36612
0.9074
2.03209
1.35162
0.193031
2.76359
0.382309
1.31093
2.37537
1.42659
0.179623
1.11569
0.937011
0.617527
1.30253
1.34749
1.60386
0.181205
2.2231
1.32136
1.89107
0.918216
0.446603
2.3554
0.784686
0.742992
0.803237
1.54453
0.774949
1.25894
0.319311
1.03957
2.25562
1.91944
1.24315
0.447127
0.726729
1.40574
1.56981
0.982865
0.897736
1.29764
0.736793
1.69802
2.04508
1.01587
1.70113
1.57202
0.769568
0.993611
1.02904
1.63126
0.974814
1.07403
0.611091
1.55487
1.83861
1.8439
0.800207
1.02624
0.797782
1.13391
1.29009
1.22139
1.18497
2.13411
0.729719
1.17099
1.88215
0.779798
1.16091
1.32008
1.76443
1.59403
1.4216
0.952903
0.679299
1.5897
1.08011
1.10282
0.589224
1.67261
1.522
0.936258
0.941718
0.604431
1.02128
1.23086
1.919
1.19877
0.629875
0.92395
1.07622
1.2209
1.35249
1.25176
1.5524
1.54829
0.973694
1.08494
1.52474
1.75879
0.723993
1.93192
1.55824
1.76208
1.31263
1.1626
0.927074
1.05289
1.80071
0.688853
1.27224
1.67087
0.905508
0.895256
2.61755
1.07505
1.17165
1.57505
1.70336
1.50689
1.55199
1.00926
0.693811
1.17976
1.23065
0.484527
1.19011
1.001
0.878127
1.29536
1.4504
0.609084
2.06255
1.14133
0.78269
1.61779
0.962347
1.35924
1.86271
1.08922
1.61788
1.32484
1.83451
1.12454
0.703736
1.44557
0.793669
1.32169
0.905558
0.771121
2.08796
1.05606
0.797392
2.81483
1.01792
1.6098
1.85291
0.931209
0.788995
1.31406
2.04972
1.36165
1.11303
1.19639
0.754832
2.50633
0.425571
1.32884
0.977307
1.05889
1.75772
1.79947
1.76673
1.31288
1.42577
1.41072
1.29953
1.69938
0.986226
0.929952
1.95934
0.711596
0.66993
1.50835
1.6312
1.24132
0.243071
1.7028
1.33918
1.40183
1.4456
1.15686
1.02173
0.304368
1.29332
1.28968
0.540684
1.60867
2.20102
1.50994
0.724839
2.29871
1.39589
0.654221
2.486
0.84964
0.602153
1.54428
0.980648
0.447769
1.91025
1.26448
1.78263
1.85471
1.28499
1.29285
1.58935
1.38975
1.60599
1.18746
0.597927
0.718489
1.93396
0.786272
0.541325
2.39971
0.377205
0.594212
1.59469
1.13095
0.936067
1.30779
1.88166
1.40125
1.4356
1.51694
0.811824
1.35003
1.24885
1.54319
1.29048
0.613265
0.693291
1.54726
1.09132
0.732849
1.29664
0.766146
1.23667
1.35371
0.727242
1.17006
1.34915
0.861819
0.237186
2.32563
0.680725
1.37613
1.69678
3.29136
3.27961
3.29419
162
228
3.24942
3.31431
3.34018
3.36397

SCALARS edge_force float
LOOKUP_TABLE default
0.5
0.5
0.5
0.5
0.5
0.5
0.5
0.5
0.5
0.5
0.5
0.5
0.5
0.5
0.5
0.5
0.5
0.5
0.5
0.5
0.5
0.5
0.5
0.5
0.5
0.5
0.5
0.5
0.5
0.5
0.5
0.5
0.5
0.5
0.5
0.5
0.5
0.5
0.5
0.5
0.5
0.5
0.5
0.5
0.5
0.5
0.5
0.5
0.5
0.5
0.5
0.5
0.5
0.5
0.5
0.5
0.5
0.5
0.5
0.5
0.5
0.5
0.5
0.5
0.5
0.5
0.5
0.5
0.5
0.5
0.5
0.5
0.5
0.5
0.5
0.5
0.5
0.5
0.5
0.5
0.5
0.5
0.5
0.5
0.5
0.5
0.5
0.5
0.5
0.5
0.5
0.5
0.5
0.5
0.5
0.5
0.5
0.5
0.5
0.5
0.5
0.5
0.5
0.5
0.5
0.5
0.5
0.5
0.5
0.5
0.5
0.5
0.5
0.5
0.5
0.5
0.5
0.5
0.5
0.5
0.5
0.5
0.5
0.5
0.5
0.5
0.5
0.5
0.5
0.5
0.5
0.5
0.5
2
0.5
2
0.5
2
0.5
0.5
2
0.5
2
0.5
2
0.5
0.5
2
0.5
2
0.5
2
0.5
0.5
2
0.5
2
0.5
2
0.5
0.5
2
0.5
2
0.5
2
0.5
0.5
2
0.5
2
0.5
2
0.5
2
2
2
2
2
2
2
0.5
0.5
2
0.5
0.5
0.5
0.5
0.5
0.5
0.5
0.5
0.5
0.5
0.5
0.5
0.5
0.5
0.5
0.5
0.5
0.5
0.5
0.5
0.5
0.5
0.5
0.5
0.5
0.5
0.5
0.5
0.5
0.5
0.5
0.5
0.5
0.5
0.5
0.5
0.5
0.5
0.5
0.5
0.5
0.5
0.5
0.5
0.5
0.5
0.5
0.5
0.5
0.5
0.5
2
0.5
0.5
2
0.5
0.5
0.5
0.5
0.5
0.5
0.5
0.5
0.5
0.5
0.5
0.5
0.5
0.5
2
0.5
0.5
0.5
0.5
2
0.5
0.5
0.5
0.5
0.5
0.5
0.5
0.5
0.5
2
0.5
2
0.5
0.5
0.5
2
0.5
0.5
0.5
0.5
0.5
2
0.5
2
0.5
0.5
2
0.5
0.5
0.5
0.5
0.5
2
0.5
0.5
0.5
0.5
0.5
0.5
0.5
0.5
0.5
0.5
0.5
0.5
0.5
0.5
2
0.5
0.5
0.5
0.5
0.5
0.5
0.5
0.5
0.5
0.5
0.5
0.5
0.5
0.5
0.5
0.5
0.5
0.5
2
0.5
0.5
2
0.5
2
0.5
0.5
2
0.5
0.5
0.5
0.5
0.5
0.5
0.5
0.5
0.5
0.5
0.5
0.5
0.5
0.5
0.5
0.5
0.5
2
0.5
0.5
0.5
0.5
0.5
0.5
0.5
0.5
0.5
0.5
0.5
2
0.5
0.5
0.5
0.5
0.5
0.5
0.5
0.5
0.5
2
0.5
0.5
0.5
0.5
0.5
0.5
0.5
0.5
2
0.5
0.5
0.5
0.5
0.5
0.5
0.5
2
0.5
0.5
0.5
2
0.5
0.5
0.5
0.5
0.5
0.5
0.5
0.5
0.5
0.5
0.5
0.5
0.5
2
0.5
0.5
0.5
0.5
0.5
0.5
0.5
0.5
2
0.5
0.5
0.5
0.5
0.5
0.5
0.5
0.5
0.5
0.5
0.5
0.5
2
0.5
0.5
0.5
0.5
0.5
0.5
0.5
2
0.5
0.5
0.5
0.5
0.5
0.5
0.5
0.5
0.5
0.5
0.5
0.5
2
0.5
0.5
0.5
0.5
0.5
0.5
0.5
0.5
0.5
0.5
0.5
0.5
0.5
0.5
0.5
0.5
0.5
0.5
0.5
0.5
0.5
0.5
2
0.5
0.5
2
0.5
0.5
0.5
0.5
0.5
2
0.5
0.5
0.5
0.5
0.5
0.5
0.5
0.5
0.5
0.5
0.5
0.5
0.5
0.5
0.5
0.5
0.5
0.5
0.5
0.5
0.5
0.5
0.5
2
0.5
0.5
0.5
0.5
0.5
0.5
0.5
0.5
0.5
0.5
0.5
2
0.5
0.5
2
0.5
0.5
0.5
0.5
0.5
0.5
0.5
0.5
0.5
0.5
0.5
0.5
2
0.5
2
0.5
0.5
0.5
0.5
0.5
0.5
0.5
0.5
0.5
0.5
0.5
0.5
0.5
0.5
0.5
0.5
0.5
0.5
0.5
0.5
0.5
0.5
0.5
0.5
2
0.5
0.5
0.5
0.5
2
0.5
0.5
0.5
0.5
0.5
0.5
0.5
0.5
0.5
0.5
0.5
0.5
0.5
0.5
0.5
0.5
0.5
2
0.5
0.5
0.5
0.5
0.5
2
0.5
0.5
0.5
0.5
0.5
2
0.5
0.5
0.5
0.5
0.5
0.5
0.5
0.5
0.5
0.5
0.5
0.5
0.5
0.5
0.5
0.5
0.5
2
0.5
0.5
0.5
0.5
0.5
0.5
0.5
0.5
0.5
0.5
0.5
2
0.5
0.5
0.5
0.5
0.5
0.5
0.5
0.5
0.5
0.5
0.5
0.5
2
0.5
0.5
0.5
0.5
0.5
0.5
0.5
2
0.5
0.5
0.5
0.5
0.5
0.5
0.5
0.5
0.5
0.5
0.5
0.5
0.5
0.5
0.5
0.5
0.5
2
0.5
0.5
0.5
0.5
0.5
0.5
2
0.5
0.5
0.5
0.5
0.5
0.5
0.5
0.5
0.5
0.5
0.5
0.5
0.5
2
0.5
0.5
0.5
0.5
0.5
0.5
0.5
0.5
0.5
0.5
0.5
0.5
0.5
0.5
0.5
0.5
0.5
0.5
0.5
0.5
0.5
2
0.5
0.5
0.5
0.5
0.5
0.5
0.5
0.5
0.5
0.5
0.5
0.5
0.5
0.5
0.5
0.5
0.5
2
0.5
0.5
0.5
0.5
0.5
0.5
0.5
0.5
0.5
0.5
0.5
0.5
0.5
0.5
0.5
0.5
0.5
0.5
0.5
2
0.5
0.5
2
0.5
0.5
0.5
0.5
0.5
0.5
0.5
0.5
0.5
2
0.5
0.5
0.5
0.5
0.5
0.5
0.5
0.5
0.5
0.5
0.5
0.5
0.5
0.5
0.5
0.5
0.5
0.5
0.5
0.5
0.5
0.5
0.5
2
0.5
0.5
0.5
0.5
0.5
0.5
0.5
0.5
0.5
0.5
2
0.5
0.5
2
0.5
0.5
0.5
0.5
0.5
0.5
0.5
0.5
0.5
0.5
0.5
0.5
0.5
0.5
0.5
0.5
0.5
0.5
0.5
0.5
0.5
0.5
0.5
2
0.5
0.5
0.5
0.5
0.5
0.5
0.5
0.5
0.5
0.5
0.5
0.5
0.5
0.5
0.5
0.5
0.5
0.5
0.5
0.5
0.5
0.5
0.5
2
0.5
0.5
0.5
0.5
0.5
0.5
2
0.5
2
0.5
0.5
0.5
0.5
0.5
0.5
0.5
0.5
0.5
0.5
0.5
0.5
0.5
0.5
0.5
0.5
0.5
0.5
0.5
0.5
2
0.5
0.5
0.5
0.5
0.5
0.5
0.5
0.5
0.5
0.5
0.5
0.5
0.5
0.5
2
0.5
0.5
0.5
0.5
0.5
0.5
0.5
0.5
0.5
0.5
0.5
2
0.5
0.5
0.5
0.5
0.5
0.5
0.5
0.5
0.5
0.5
0.5
0.5
2
0.5
0.5
0.5
0.5
0.5
0.5
0.5
0.5
0.5
0.5
0.5
0.5
0.5
0.5
0.5
0.5
0.5
0.5
0.5
0.5
0.5
0.5
0.5
0.5
0.5
0.5
0.5
0.5
0.5
0.5
0.5
0.5
0.5
0.5
0.5
0.5
0.5
0.5
0.5
0.5
0.5
0.5
0.5
2
0.5
0.5
2
0.5
0.5
0.5
0.5
0.5
0.5
0.5
0.5
0.5
0.5
0.5
0.5
0.5
0.5
0.5
0.5
0.5
0.5
0.5
0.5
0.5
0.5
0.5
0.5
2
0.5
0.5
2
0.5
2
0.5
0.5
0.5
0.5
0.5
0.5
0.5
0.5
0.5
0.5
0.5
0.5
0.5
0.5
0.5
0.5
0.5
0.5
0.5
0.5
0.5
0.5
0.5
0.5
0.5
0.5
0.5
0.5
0.5
0.5
0.5
0.5
2
0.5
0.5
0.5
0.5
0.5
0.5
0.5
0.5
0.5
0.5
0.5
0.5
0.5
0.5
2
0.5
0.5
0.5
2
0.5
0.5
0.5
0.5
0.5
0.5
0.5
0.5
0.5
0.5
0.5
0.5
0.5
0.5
0.5
0.5
0.5
0.5
0.5
0.5
2
0.5
0.5
0.5
0.5
0.5
0.5
0.5
0.5
0.5
0.5
0.5
0.5
0.5
0.5
0.5
0.5
0.5
0.5
0.5
2
0.5
0.5
0.5
2
0.5
0.5
0.5
0.5
0.5
0.5
0.5
0.5
0.5
0.5
0.5
0.5
0.5
0.5
0.5
0.5
0.5
0.5
0.5
0.5
0.5
0.5
0.5
0.5
0.5
0.5
0.5
0.5
0.5
0.5
0.5
0.5
2
0.5
0.5
0.5
0.5
0.5
0.5
0.5
0.5
0.5
0.5
0.5
0.5
0.5
2
0.5
0.5
0.5
0.5
0.5
2
0.5
0.5
0.5
0.5
0.5
0.5
0.5
0.5
0.5
0.5
0.5
2
0.5
0.5
0.5
0.5
0.5
0.5
0.5
0.5
0.5
0.5
0.5
0.5
0.5
0.5
0.5
0.5
0.5
0.5
0.5
0.5
2
0.5
0.5
0.5
0.5
0.5
0.5
0.5
0.5
0.5
0.5
0.5
2
0.5
0.5
0.5
0.5
0.5
0.5
0.5
0.5
0.5
0.5
0.5
0.5
0.5
0.5
2
0.5
0.5
0.5
0.5
0.5
0.5
0.5
0.5
0.5
0.5
0.5
0.5
0.5
0.5
0.5
0.5
0.5
0.5
2
0.5
2
0.5
0.5
2
0.5
0.5
0.5
0.5
0.5
0.5
0.5
0.5
0.5
2
0.5
0.5
0.5
0.5
0.5
0.5
0.5
0.5
0.5
0.5
0.5
0.5
0.5
0.5
0.5
0.5
0.5
0.5
0.5
0.5
0.5
0.5
0.5
0.5
0.5
0.5
0.5
0.5
0.5
0.5
0.5
0.5
0.5
0.5
0.5
0.5
0.5
0.5
0.5
0.5
0.5
0.5
0.5
0.5
0.5
0.5
0
0
0
0
0
0
0
0
0
