# vtk DataFile Version 2.0
2D-vertex
ASCII
DATASET UNSTRUCTURED_GRID
POINTS 568 float
0.122424 -2.73498 0
2.57755 -2.62764 0
3.00542 -1.6963 0
2.0249 -0.586191 0
-0.243104 -0.348902 0
-1.01712 -1.80851 0
3.53679 -1.68482 0
4.14583 -0.857533 0
3.28356 0.692972 0
2.21467 0.421823 0
1.08852 1.71677 0
-0.594382 2.26629 0
-1.40593 1.02397 0
-1.57348 0.988758 0
-2.14329 -0.649536 0
-1.66341 -1.55383 0
4.71576 -1.042 0
5.5691 -0.20081 0
3.80795 1.40782 0
3.52009 1.35051 0
2.6914 2.34359 0
1.60366 2.30319 0
1.11134 5.87004 0
0.173822 5.87378 0
-0.6746 4.06542 0
-1.94674 3.23469 0
-1.92406 1.35414 0
-3.23293 1.10112 0
-3.77046 0.0931726 0
-3.4893 -0.627131 0
6.64098 -0.239357 0
7.29743 0.455621 0
7.18141 1.77563 0
5.01848 3.03225 0
5.51814 3.59089 0
3.22244 4.99429 0
2.53906 6.25712 0
1.59517 6.45697 0
0.690517 9.47417 0
-0.978272 9.55133 0
-0.679881 6.71299 0
-2.2851 5.84555 0
-3.33648 4.38288 0
-4.32673 4.44127 0
-5.0776 3.08143 0
-6.50172 2.80255 0
-6.80781 1.74979 0
-5.31716 0.36478 0
7.63887 2.38228 0
7.34795 3.43179 0
6.62499 3.87928 0
6.01163 5.94402 0
3.69246 7.21329 0
3.653 8.00017 0
2.21642 9.56459 0
2.77833 10.2634 0
-2.00619 10.8468 0
-1.95084 10.1082 0
-3.15825 8.89298 0
-2.8597 6.83322 0
-4.55571 7.20863 0
-5.92777 5.94786 0
-7.87532 4.52296 0
-7.73794 3.98359 0
8.30324 3.80311 0
8.30335 3.80561 0
6.95532 5.88457 0
7.43982 7.07221 0
6.28011 8.35723 0
6.5269 9.02435 0
5.87966 10.0052 0
5.71524 10.362 0
-2.81722 13.0983 0
-3.00918 12.8951 0
-6.37279 10.3868 0
-5.67848 9.52252 0
-6.38075 8.25837 0
-6.27947 8.05086 0
-8.86357 5.0493 0
-8.71283 4.68774 0
9.85658 4.03033 0
10.2276 4.97243 0
9.49194 6.00228 0
10.6849 6.3611 0
10.4934 7.89933 0
10.741 8.63182 0
10.2263 13.4207 0
11.1761 15.7244 0
-10.0956 15.855 0
-10.0536 15.6786 0
-10.3528 9.68663 0
-10.0343 9.12546 0
-10.363 8.51283 0
-9.60372 7.39215 0
-10.3828 6.14734 0
-9.92168 5.16109 0
3.43462 -4.51547 0
4.65308 -4.0077 0
5.49829 -3.63245 0
7.903 -2.12254 0
9.24763 -0.734696 0
10.6691 1.54122 0
10.7638 1.69734 0
11.5134 2.73727 0
12.3924 4.62839 0
12.6413 5.40012 0
13.0143 8.92166 0
13.6321 16.1625 0
-13.3615 16.4047 0
-12.8909 9.63496 0
-12.794 8.33663 0
-12.397 5.78872 0
-11.5186 3.85138 0
-10.6618 2.75422 0
-10.0605 2.03152 0
-9.16508 0.70874 0
-7.26033 -1.44049 0
-5.21421 -2.864 0
-3.14272 -3.89174 0
-0.166731 -4.77698 0
12.9356 10.6466 0
9.10387 10.7551 0
-13.1769 12.3017 0
-10.4518 12.9874 0
-0.443058 3.74027 0
0.894802 3.80734 0
-1.95014 5.79425 0
-1.26805 4.07179 0
4.52532 5.15107 0
4.95964 6.0607 0
0.380768 10.9539 0
0.16294 9.9896 0
-1.2137 8.00931 0
-2.47146 7.73509 0
6.01085 5.94638 0
5.28583 7.8985 0
4.31959 8.42734 0
4.34443 9.65462 0
2.36797 11.1422 0
2.36585 11.1409 0
-2.67727 11.1887 0
-4.19736 9.67156 0
-3.7495 8.93286 0
-4.67141 7.78566 0
1.18568 1.08459 0
-0.295468 0.125795 0
6.36375 2.04965 0
5.21798 0.540067 0
5.01649 3.03376 0
3.0124 3.89576 0
-9.27504 11.2555 0
-6.18432 11.0156 0
3.0099 3.89576 0
1.56848 4.61577 0
-9.58837 7.33143 0
-8.1621 6.70961 0
-1.04932 -1.82389 0
-1.53124 -4.5021 0
7.0296 33.1703 0
8.06008 34.8099 0
0.943033 -2.41473 0
1.09362 -0.965788 0
2.58888 8.42635 0
1.37774 7.39581 0
8.91107 10.2601 0
5.88056 10.0076 0
9.70848 21.6077 0
0.325458 12.6599 0
-2.93778 -0.894297 0
-3.701 -3.64219 0
-4.52219 2.14752 0
-5.43005 0.988568 0
-5.84676 -2.47763 0
-4.73547 -0.0391493 0
0.399498 7.91656 0
-0.580855 7.4816 0
9.45083 5.8484 0
7.80711 5.12278 0
5.36518 -0.725217 0
7.01397 -2.78067 0
1.38121 -4.88924 0
1.47533 -2.86274 0
-6.38297 1.12407 0
-8.00191 -0.741105 0
-5.54864 4.84878 0
-6.8707 3.64395 0
7.45604 1.89934 0
9.85189 0.120237 0
-12.6543 7.16105 0
-9.61303 7.37653 0
13.0394 7.42703 0
10.9462 7.36964 0
-2.93336 3.44424 0
-3.85901 2.12343 0
-9.64249 1.46044 0
-6.86414 3.08194 0
-3.71763 6.65816 0
-4.49287 4.74814 0
-7.00572 6.88114 0
-6.58259 6.05271 0
8.46188 7.20596 0
8.71123 7.72114 0
-0.842337 12.5312 0
-0.716653 11.6999 0
12.9397 10.6558 0
10.4678 11.9704 0
10.39 14.4166 0
2.19395 11.484 0
8.1867 8.92289 0
9.53153 9.67457 0
-7.56054 8.38044 0
-7.91001 9.17488 0
-2.34388 14.7241 0
1.00592 13.8605 0
-10.3529 13.5405 0
-4.35945 12.8346 0
9.53057 9.6769 0
12.9389 10.0383 0
-11.0806 14.8645 0
-13.4616 15.357 0
-12.9479 10.6805 0
-9.5121 10.8641 0
13.0784 18.9741 0
10.6131 17.4593 0
8.77901 11.205 0
6.67641 11.3727 0
-9.51197 10.8616 0
-7.59512 10.0865 0
2.66013 14.3955 0
4.47278 12.9049 0
-4.71236 11.4166 0
-3.87594 10.6277 0
5.27003 12.6881 0
4.33449 11.1915 0
13.3288 12.4105 0
10.7079 12.5771 0
-3.0002 14.3473 0
-4.91355 13.7986 0
-8.782 29.8084 0
0.143488 15.2705 0
-6.83655 11.6565 0
-4.82113 13.1708 0
-13.0252 11.4226 0
-9.77889 11.9403 0
6.7231 16.6179 0
8.67846 15.1321 0
-0.964773 14.077 0
-0.614628 12.7607 0
-10.7766 19.3583 0
-13.4234 19.2176 0
4.92926 34.0695 0
2.60017 15.336 0
-3.27196 16.699 0
-10.5823 19.7797 0
-11.0644 14.0563 0
-13.3882 13.4275 0
-7.01722 15.3788 0
-6.52024 14.1516 0
-6.71523 12.2572 0
-7.63045 13.3048 0
13.5875 14.3059 0
11.1285 14.9673 0
-10.9855 21.4061 0
-13.2403 22.4533 0
6.44469 12.3954 0
5.27174 12.6862 0
10.5551 16.3497 0
8.72953 15.8775 0
4.29616 13.875 0
7.14881 16.2491 0
-2.13659 15.8302 0
-0.374041 16.1487 0
13.2977 24.3557 0
10.9902 24.0936 0
0.512499 15.2022 0
1.60813 15.9964 0
10.7584 26.2258 0
4.45974 16.0172 0
13.4469 13.3537 0
10.5459 13.8338 0
-8.81974 15.0476 0
-8.91918 14.15 0
-9.68077 12.2382 0
-7.65007 12.9525 0
-10.3956 18.7658 0
-6.69373 16.8911 0
2.8018 35.0293 0
2.54838 36.8217 0
2.0123 13.7297 0
2.75798 12.2792 0
-4.15328 15.9409 0
-4.18165 15.0818 0
-13.3763 18.0844 0
-10.715 18.1796 0
0.124935 17.4416 0
-0.168631 17.2754 0
8.16625 13.4635 0
7.75395 14.2734 0
9.04921 11.7873 0
8.00166 13.1034 0
-11.2199 20.5886 0
-13.4579 20.4713 0
-2.65628 16.6257 0
-1.66963 17.8809 0
1.86522 16.9321 0
3.87184 16.9771 0
6.74626 14.3826 0
6.53688 14.7949 0
-7.89769 18.5085 0
-7.70054 18.749 0
-9.65566 16.3658 0
-6.92303 16.3125 0
4.41044 15.9036 0
5.08239 14.8383 0
-10.2043 23.1555 0
-3.94412 18.1138 0
13.1465 25.9831 0
11.3841 25.6359 0
-11.3645 30.2561 0
-9.91569 29.307 0
9.2062 17.8531 0
8.16638 16.4773 0
12.9268 20.6375 0
10.1181 20.8028 0
4.74979 18.2422 0
6.66286 19.2306 0
1.71046 19.1061 0
4.07727 18.6287 0
-0.36433 24.9803 0
-2.77188 23.8119 0
-2.71807 22.0255 0
-4.49592 19.9146 0
-6.67111 15.8947 0
-4.38118 14.9956 0
-9.7466 21.6525 0
-8.4953 20.0533 0
7.13533 24.3238 0
7.80153 21.2868 0
-13.3411 17.0188 0
-10.0309 17.0774 0
-10.0171 17.1033 0
-7.78586 17.762 0
0.138391 19.2379 0
0.355453 18.9729 0
7.45315 32.4088 0
2.44362 22.2296 0
10.8268 32.4953 0
9.73315 31.5397 0
-12.9635 25.9018 0
-10.9254 25.0968 0
-5.73488 17.1192 0
-5.45738 17.9794 0
8.85588 18.4575 0
7.62578 18.2039 0
1.79646 17.0332 0
2.34294 18.1209 0
10.8373 16.9435 0
13.5116 17.2028 0
12.9255 19.5003 0
9.19877 18.1881 0
-10.0705 25.459 0
-4.46569 20.018 0
-1.98392 18.7035 0
-3.59783 18.7608 0
3.88942 22.827 0
4.64478 22.2919 0
-6.08703 18.7667 0
-5.80143 19.599 0
4.776 17.946 0
6.73531 17.1226 0
-1.49756 21.693 0
0.0849626 23.0044 0
2.16177 28.7518 0
6.58899 30.7503 0
-4.43732 34.1845 0
-5.05812 35.4523 0
0.148216 34.8103 0
-1.73757 24.6939 0
-13.2185 23.8725 0
-11.1055 24.0558 0
-1.62166 19.2 0
-3.36909 20.451 0
-7.23588 21.7078 0
-5.61016 21.4478 0
9.56159 29.2591 0
7.17238 30.0572 0
5.57715 20.9495 0
7.16905 21.7362 0
10.9021 24.1913 0
8.43105 23.6289 0
13.1535 22.4643 0
10.8633 23.1857 0
-9.96566 28.186 0
-3.36868 21.6008 0
12.0321 30.2587 0
10.3578 29.9524 0
2.81738 20.2857 0
4.12114 19.5941 0
-12.8146 26.6644 0
-10.7539 26.6571 0
-0.8494 26.5412 0
4.02236 23.9941 0
0.599211 20.4523 0
2.27636 20.9741 0
-8.47874 20.0974 0
-7.04727 20.6026 0
9.3585 19.6718 0
7.74612 20.0993 0
-1.13393 20.8943 0
-1.90603 19.9024 0
12.9025 19.709 0
9.36015 19.6699 0
-1.90686 24.1436 0
-0.807435 22.8672 0
-5.34921 21.9833 0
-4.31594 22.2393 0
-3.56237 24.2644 0
-4.24077 23.8167 0
-13.2207 22.6286 0
-10.2875 22.8838 0
5.12583 24.4737 0
6.09335 23.794 0
0.281817 29.7198 0
1.77462 34.6255 0
-7.61231 22.7892 0
-6.8623 23.7013 0
1.0174 35.2619 0
1.05658 36.83 0
-5.93341 29.513 0
-4.71865 30.3268 0
9.90681 22.4863 0
8.48892 23.0355 0
12.8122 27.6196 0
10.9189 27.0622 0
6.04082 22.9755 0
7.19472 22.2356 0
2.80584 20.6304 0
4.59786 21.5957 0
3.32064 24.5242 0
3.43703 28.3047 0
5.53957 20.3366 0
6.69925 19.5409 0
1.9451 22.6481 0
2.20541 24.0816 0
13.0104 21.5458 0
10.0329 22.0261 0
-2.49494 32.415 0
-1.94423 30.4714 0
-7.86385 31.0694 0
-8.93043 32.9459 0
0.205288 20.9333 0
0.708525 22.3033 0
-6.29072 23.6385 0
-5.61238 24.3818 0
-9.58261 22.0261 0
-7.23634 21.7053 0
6.45869 26.8957 0
8.48694 25.8654 0
-12.2082 28.7348 0
-10.5458 27.8823 0
-5.76519 25.2158 0
-4.93433 25.9572 0
2.97838 30.6732 0
5.91228 30.7159 0
-5.97965 31.8909 0
-5.26894 30.4174 0
5.81321 28.1839 0
4.55793 27.4206 0
2.8521 28.1254 0
1.8164 26.1646 0
-3.7964 25.6594 0
-3.31487 26.2021 0
4.3953 34.9688 0
4.94108 36.4022 0
0.439226 24.1534 0
1.64677 24.5402 0
-7.75816 25.0135 0
-7.55574 25.8928 0
2.68775 32.1992 0
1.51798 32.743 0
-2.6308 26.1115 0
-2.23508 26.6245 0
8.72153 31.6339 0
8.15755 30.3143 0
-2.67543 34.9056 0
-3.07061 36.2528 0
-3.4423 34.0669 0
-2.9773 32.5323 0
9.12533 25.4702 0
9.26547 24.2977 0
-7.40093 28.5213 0
-7.14404 26.0426 0
9.56337 28.976 0
8.04028 27.2954 0
-0.382607 32.8934 0
0.462679 30.6456 0
-9.18354 23.5093 0
-9.03776 24.627 0
9.40479 33.85 0
8.32063 32.3857 0
12.3813 29.1111 0
10.4236 28.4025 0
6.27165 33.1865 0
5.35792 31.7229 0
-0.851156 29.3935 0
-0.286187 27.7594 0
-5.51465 32.7661 0
-6.66322 34.5129 0
3.48607 25.8993 0
2.60219 26.5451 0
5.20152 29.5987 0
5.67371 28.2232 0
5.2876 25.7335 0
4.48128 26.342 0
-3.82298 28.5106 0
-2.99185 28.6457 0
7.19838 25.2571 0
6.21001 26.0618 0
4.01907 29.675 0
3.66391 30.4911 0
-7.33993 30.9813 0
-6.7198 29.5792 0
5.77938 34.0627 0
6.6392 35.6459 0
-5.17052 27.9597 0
-4.13467 27.9315 0
-5.14794 32.8064 0
-3.94871 31.7896 0
2.31398 30.1975 0
1.13632 30.9363 0
-10.3975 31.5682 0
-8.74643 30.3451 0
-7.80379 33.743 0
-6.69194 31.9101 0
0.149232 33.2021 0
1.21542 32.5733 0
1.38782 28.5551 0
1.04108 27.8073 0
4.15653 32.9 0
4.66409 31.7724 0
-1.69197 34.6055 0
-1.48034 33.4074 0
-5.50911 27.4333 0
-6.71609 27.4136 0
-3.90791 31.0514 0
-2.64411 30.2485 0
-0.154065 25.7075 0
1.42264 26.3974 0
-0.987976 36.7018 0
-0.81339 35.298 0
7.00821 29.0598 0
8.17069 28.27 0
10.3123 27.5649 0
8.58338 26.8643 0
-9.99235 25.9916 0
-8.5765 26.6395 0
2.62 34.7394 0
3.45835 32.9927 0
-7.70008 28.5281 0
-8.61111 27.505 0
-1.75144 31.1045 0
-0.505036 31.4389 0
-2.42127 28.153 0
-1.04824 28.6467 0
-12.889 26.2831 0
-10.0319 25.7218 0
7.10297 29.6355 0
5.27387 29.388 0
CELLS 285 1906
5 0 160 161 4 5
6 7 8 9 3 2 6
6 145 4 161 3 9 144
8 15 156 5 4 145 12 13 14
8 7 16 178 17 147 18 19 8
7 20 21 10 144 9 8 19
6 24 124 125 153 22 23
8 25 26 13 12 11 124 24 127
7 28 29 168 14 13 26 27
6 32 146 147 17 30 31
7 18 33 148 149 152 20 19
5 20 152 153 125 21
7 22 37 163 174 175 40 23
5 24 23 40 126 127
5 26 25 192 193 27
7 28 27 193 170 171 47 173
9 48 49 50 34 148 33 146 32 186
5 35 128 129 52 36
6 36 52 53 162 163 37
6 38 54 55 139 130 131
7 40 175 132 133 59 41 126
6 42 41 59 196 197 43
7 44 43 197 184 185 195 45
8 49 64 65 177 66 134 51 50
7 51 134 135 136 53 52 129
6 53 136 137 55 54 162
8 55 137 70 165 71 233 138 139
7 57 56 140 231 141 142 58
7 59 133 58 142 143 60 196
6 61 60 143 77 198 199
5 65 80 81 176 177
6 67 200 201 208 69 68
7 69 208 209 216 164 165 70
5 71 225 264 265 233
8 73 72 236 291 333 237 241 215
5 92 93 210 211 91
8 77 76 210 93 189 154 155 198
5 2 1 96 97 6
5 7 6 97 98 16
5 17 178 179 99 30
4 101 48 186 187
5 49 48 101 102 64
5 65 64 102 103 80
6 104 105 83 82 176 81
4 105 190 191 83
5 121 164 216 217 120
5 214 254 255 122 123
5 91 90 109 110 92
5 110 188 189 93 92
5 78 95 112 113 79
5 62 79 113 114 63
5 195 185 63 114 194
4 173 47 116 172
5 14 168 169 118 15
5 5 156 157 119 0
5 160 0 119 180 181
4 30 99 100 31
4 80 103 104 81
5 293 284 248 249 292
4 94 111 112 95
5 182 183 116 47 171
6 120 204 205 298 224 121
5 122 242 243 282 123
5 124 11 10 21 125
6 126 41 42 192 25 127
5 128 34 50 51 129
6 130 203 56 57 39 131
5 132 39 57 58 133
5 134 66 67 68 135
6 136 135 68 69 70 137
8 138 207 167 247 202 203 130 139
5 140 73 215 230 231
6 142 141 75 76 77 143
5 144 10 11 12 145
4 146 33 18 147
5 148 34 128 35 149
7 150 221 226 227 74 151 240
7 152 149 35 36 37 22 153
5 154 94 95 78 155
4 156 15 118 157
4 357 222 223 356
6 160 181 1 2 3 161
5 162 54 38 174 163
6 164 121 224 225 71 165
7 166 445 430 431 435 387 337
4 168 29 117 169
6 170 44 45 46 182 171
5 172 117 29 28 173
6 174 38 131 39 132 175
6 176 82 200 67 66 177
4 178 16 98 179
4 180 96 1 181
4 182 46 115 183
6 184 61 199 62 63 185
5 186 32 31 100 187
5 188 111 94 154 189
5 190 106 85 84 191
6 192 42 43 44 170 193
5 194 115 46 45 195
5 196 60 61 184 197
6 198 155 78 79 62 199
6 200 82 83 191 84 201
6 202 72 73 140 56 203
4 204 234 235 205
6 206 261 87 266 267 245
5 208 201 84 85 209
6 210 76 75 74 227 211
6 239 246 247 167 213 274
6 214 123 282 283 259 281
5 216 209 85 106 217
5 218 89 88 108 219
5 220 109 90 226 221
5 222 358 359 320 223
5 224 298 299 264 225
5 226 90 91 211 227
5 228 288 289 229 268
6 230 151 74 75 141 231
7 232 229 289 207 138 233 265
5 234 278 279 86 235
7 236 212 270 302 252 290 291
6 253 248 284 308 309 335
6 240 151 230 215 241 258
5 242 220 221 150 243
6 244 277 312 313 307 269
6 246 212 236 72 202 247
5 248 253 300 301 249
8 295 271 239 274 275 304 354 294
6 252 302 303 362 363 315
4 254 218 219 255
5 256 280 281 259 257
6 258 241 237 257 259 283
4 260 107 87 261
4 531 448 449 530
7 264 299 296 297 306 232 265
6 321 267 266 356 223 320
6 268 229 232 306 307 313
5 270 212 246 239 271
5 272 316 317 388 273
6 274 213 288 228 251 275
6 276 433 552 553 457 488
5 278 260 261 206 279
6 280 89 218 254 214 281
6 282 243 150 240 258 283
5 284 293 340 341 308
4 286 472 473 287
5 288 213 167 207 289
7 332 333 291 290 350 285 311
5 292 338 339 340 293
6 328 377 412 413 371 474
6 296 86 279 206 245 297
6 298 205 235 86 296 299
4 300 262 263 301
5 302 270 271 295 303
6 304 275 251 312 277 305
7 306 297 245 267 321 269 307
7 308 341 285 350 351 366 309
7 310 88 89 280 256 332 311
5 312 251 228 268 313
7 314 419 454 455 382 424 496
5 316 432 433 276 317
5 318 458 459 392 319
8 320 359 352 353 369 244 269 321
5 322 444 445 166 323
5 324 368 369 353 325
5 326 343 294 354 355
6 479 423 426 376 534 535
6 330 329 416 417 415 393
5 332 256 257 237 333
6 334 262 300 253 335 404
6 336 421 434 435 431 389
5 338 108 88 310 339
6 340 339 310 311 285 341
7 342 380 362 303 295 294 343
6 344 158 502 503 463 373
5 346 498 499 482 347
4 348 378 379 349
5 350 290 252 315 351
7 352 411 406 407 441 325 353
7 354 304 305 368 324 327 355
5 356 266 87 107 357
5 358 410 411 352 359
6 360 349 379 314 496 497
7 362 380 409 381 361 331 363
6 364 345 403 436 437 365
6 366 351 315 363 331 367
5 368 305 277 244 369
6 371 413 370 408 450 451
6 438 508 509 469 475 443
5 486 484 485 375 374
6 549 540 541 494 534 376
5 378 418 419 314 379
6 380 342 402 450 408 409
7 382 455 405 367 331 361 383
5 384 395 347 482 483
6 386 440 441 407 337 387
5 388 317 276 488 489
4 390 272 273 391
6 392 459 399 554 555 559
4 394 346 347 395
5 396 326 355 327 397
5 398 564 565 554 399
5 400 546 547 537 505
7 402 342 343 326 396 436 403
6 404 335 309 366 367 405
5 406 323 166 337 407
6 408 370 330 393 381 409
5 410 322 323 406 411
5 412 329 330 370 413
6 414 383 361 381 393 415
5 542 543 491 460 461
6 418 263 262 334 454 419
6 420 401 364 365 434 421
6 529 495 422 536 372 528
6 424 382 383 414 452 425
6 426 423 556 286 287 427
6 428 524 525 514 429 465
7 430 391 273 388 489 389 431
5 432 500 501 552 433
6 434 365 437 386 387 435
6 436 396 397 440 386 437
6 438 401 420 512 513 508
6 440 397 327 324 325 441
6 442 345 364 401 438 443
5 444 390 391 430 445
7 446 487 527 544 545 447 560
5 464 506 507 532 533
6 450 402 403 345 442 451
5 452 414 415 417 453
5 454 334 404 405 455
6 336 516 517 512 420 421
4 458 398 399 459
6 460 453 417 416 470 461
7 519 462 528 372 468 439 518
6 464 533 520 521 428 465
5 566 567 511 466 550
7 468 372 536 537 547 469 509
7 470 416 329 412 377 480 471
5 472 250 522 523 473
6 474 371 451 442 443 475
7 476 425 452 453 460 491 477
6 250 472 286 556 557 538
6 480 377 328 546 400 481
6 482 499 344 373 385 483
5 427 548 549 376 426
5 486 374 526 527 487
6 488 457 516 336 389 489
7 490 558 559 555 477 491 543
7 492 384 483 385 566 550 551
5 494 541 446 560 561
5 496 424 425 476 497
5 498 159 158 344 499
6 500 394 395 384 492 501
6 539 503 502 522 250 538
6 504 447 545 515 562 563
5 526 374 375 507 506
6 508 513 467 439 468 509
6 567 510 518 439 467 511
7 512 517 456 466 511 467 513
7 514 525 471 480 481 562 515
6 516 457 553 493 456 517
6 518 510 463 503 539 519
7 520 448 531 238 558 490 521
5 522 502 158 159 523
6 542 461 470 471 525 524
7 526 506 464 465 429 544 527
6 528 462 478 479 535 529
5 530 318 319 238 531
5 532 449 448 520 533
6 534 494 561 495 529 535
6 536 422 504 563 505 537
6 538 557 478 462 519 539
6 540 484 486 487 446 541
6 542 524 428 521 490 543
5 544 429 514 515 545
6 546 328 474 475 469 547
5 548 485 484 540 549
5 550 466 456 493 551
6 552 501 492 551 493 553
7 554 565 360 497 476 477 555
5 556 423 479 478 557
5 558 238 319 392 559
6 560 447 504 422 495 561
5 562 481 400 505 563
5 564 348 349 360 565
6 566 385 373 463 510 567
CELL_TYPES 285
7
7
7
7
7
7
7
7
7
7
7
7
7
7
7
7
7
7
7
7
7
7
7
7
7
7
7
7
7
7
7
7
7
7
7
7
7
7
7
7
7
7
7
7
7
7
7
7
7
7
7
7
7
7
7
7
7
7
7
7
7
7
7
7
7
7
7
7
7
7
7
7
7
7
7
7
7
7
7
7
7
7
7
7
7
7
7
7
7
7
7
7
7
7
7
7
7
7
7
7
7
7
7
7
7
7
7
7
7
7
7
7
7
7
7
7
7
7
7
7
7
7
7
7
7
7
7
7
7
7
7
7
7
7
7
7
7
7
7
7
7
7
7
7
7
7
7
7
7
7
7
7
7
7
7
7
7
7
7
7
7
7
7
7
7
7
7
7
7
7
7
7
7
7
7
7
7
7
7
7
7
7
7
7
7
7
7
7
7
7
7
7
7
7
7
7
7
7
7
7
7
7
7
7
7
7
7
7
7
7
7
7
7
7
7
7
7
7
7
7
7
7
7
7
7
7
7
7
7
7
7
7
7
7
7
7
7
7
7
7
7
7
7
7
7
7
7
7
7
7
7
7
7
7
7
7
7
7
7
7
7
7
7
7
7
7
7
7
7
7
7
7
7
7
7
7
7
7
7
7
7
7
7
7
7
CELL_DATA 285
SCALARS cell_division_count float
LOOKUP_TABLE default
1
0
1
0
0
0
1
0
0
1
1
1
1
1
1
1
0
1
1
1
1
1
1
0
1
1
1
1
1
1
1
1
2
4
3
1
1
0
0
1
1
0
0
0
1
2
3
0
1
0
0
1
1
1
1
1
0
0
3
0
1
2
3
1
1
1
1
1
1
1
2
2
1
1
1
1
2
1
1
1
3
1
1
2
9
1
1
1
1
1
1
1
1
1
1
1
1
1
1
1
1
1
2
3
5
2
1
3
5
2
2
2
5
3
2
4
2
3
5
5
6
3
3
6
3
4
6
9
3
5
4
4
8
5
6
6
5
4
5
14
5
5
5
7
5
4
6
4
10
5
3
4
6
6
6
7
6
6
11
7
8
7
6
7
8
12
11
6
8
9
4
7
8
11
6
7
7
8
8
3
6
12
10
11
9
7
11
13
8
12
8
11
10
11
9
9
5
14
6
10
8
13
10
10
8
11
6
10
11
14
8
11
11
11
7
11
9
8
9
11
13
9
11
6
13
9
11
12
11
13
8
12
11
11
14
14
10
6
12
13
11
11
11
9
12
9
14
14
12
12
6
8
12
14
8
13
13
13
12
13
11
11
6
11
12
11
8
9
12
14
12
12
14
13
13
9
14
14
14
11
14
12
14
8
14
SCALARS cell_time float
LOOKUP_TABLE default
1641
2.22229e+13
1661
4.48239e+13
2.67348e+11
1.25633e+10
1671
2.68224e+09
9.19769e+11
1661
1661
1651
1621
1671
1591
1631
1.22765e+06
1671
1641
1671
1671
1571
1611
25453.4
1671
1671
1671
1671
1671
1561
1621
1561
1521
1261
1411
1511
1651
1.00108e+18
2.94533e+15
1621
1611
106753
3015.76
1727.34
1601
1501
1301
1718.01
1611
4369.01
1986.18
1591
1631
1641
1651
1621
1.12104e+13
22836.3
1091
3707.96
1621
1541
1361
1671
1671
1671
1671
1671
1671
1671
1551
1431
1671
1661
1661
1661
1491
1651
1651
1651
791
1641
1641
1501
421
1641
1631
1631
1621
1621
1621
1621
1621
1611
1611
1611
1601
1591
1591
1571
1561
1561
1551
1421
1241
1521
1511
1361
1141
1501
1501
1501
791
1081
1491
1111
1431
1421
1151
1111
1001
1381
1361
991
1361
1081
1091
781
1301
1151
1281
1281
61
1091
981
1011
1211
991
1181
11
1151
1151
1141
841
271
1111
881
861
511
1091
1081
1081
1081
1071
1011
811
1001
991
351
421
341
801
391
731
801
51
481
881
871
421
861
841
841
191
201
671
811
531
801
791
521
211
661
421
741
731
361
151
231
31
481
531
651
241
421
221
621
11
601
601
1
21
571
541
531
531
521
511
491
31
481
471
81
461
461
111
421
201
421
421
141
421
411
391
31
61
361
361
351
131
341
341
131
121
1
51
281
121
261
251
11
251
241
21
101
221
11
21
11
211
201
201
41
11
161
151
151
141
141
131
131
121
121
111
101
81
61
61
51
51
41
31
31
31
21
21
21
11
11
11
11
11
11
1
1
SCALARS cell_area float
LOOKUP_TABLE default
3.24261
3.30078
3.29421
3.35701
3.35203
3.3447
3.32835
3.3767
3.34973
3.2823
3.33801
3.28497
3.38645
3.32081
3.30746
3.33102
3.40009
3.29031
3.34675
3.39473
3.39244
3.34185
3.34097
3.3741
3.36124
3.3774
3.43578
3.40435
3.39275
3.33143
3.24847
3.29992
3.34647
3.32789
3.44558
3.25274
3.34819
3.25304
3.26157
3.24908
3.2378
3.27918
3.26314
3.28031
3.22198
3.28936
3.26322
3.26579
3.26105
3.24985
3.2694
3.27475
3.21727
3.25773
3.2452
3.24258
3.2102
3.21855
3.28075
3.19808
3.24703
3.309
3.27522
3.28207
3.33934
3.28801
3.39653
3.35272
3.28353
3.36062
3.44665
3.35261
3.35853
3.28797
3.24879
3.27702
3.34284
3.35247
3.2337
3.22262
3.23018
3.25923
3.33559
3.32797
3.35581
3.22328
3.29795
3.25295
3.37162
3.28964
3.225
3.20418
3.217
3.30578
3.25226
3.24695
3.26074
3.32581
3.26428
3.30245
3.292
3.26608
3.39728
3.23951
3.29993
3.24486
3.33065
3.38441
3.29323
3.2807
3.26765
3.27503
3.28458
3.29154
3.25
3.31077
3.35734
3.39988
3.26402
3.42401
3.29802
3.35272
3.27765
3.33763
3.40023
3.27715
3.43261
3.38412
3.22314
3.27962
3.33355
3.21682
3.24883
3.36927
3.32133
3.34467
3.35698
3.2754
3.36066
3.28892
3.25922
3.2861
3.31745
3.27364
3.24977
3.3454
3.39028
3.28045
3.31857
3.31729
3.30273
3.24953
3.35912
3.34854
3.38199
3.381
3.34098
3.29995
3.33863
3.2891
3.27291
3.40442
3.29945
3.30919
3.35026
3.28806
3.31942
3.32411
3.2933
3.33474
3.28214
3.32493
3.41215
3.29644
3.27435
3.25399
3.35196
3.36491
3.36867
3.25064
3.30114
3.30036
3.40779
3.34599
3.37592
3.30605
3.3397
3.33199
3.29995
3.28756
3.29697
3.37794
3.37943
3.23396
3.33878
3.26154
3.24873
3.28749
3.22334
3.31964
3.30998
3.26631
3.38706
3.34139
3.29621
3.35358
3.29929
3.29499
3.35166
3.28412
3.31735
3.33711
3.30957
3.31892
3.33145
3.30752
3.33677
3.3014
3.33968
3.33893
3.3355
3.33277
3.33883
3.29345
3.31753
3.30931
3.35457
3.28708
3.28701
3.32832
3.24241
3.31534
3.34777
3.31699
3.32771
3.34961
3.35115
3.28903
3.33291
3.33441
3.27602
3.30817
3.28237
3.31146
3.26843
3.31138
3.33269
3.2792
3.25338
3.28247
3.29292
3.3159
3.29244
3.28935
3.30291
3.33323
3.29442
3.34667
3.33523
3.30499
3.30862
3.32603
3.29693
3.31622
3.33462
3.29421
3.27669
3.29534
3.28473
3.29273
3.29484
3.28395
3.31388
3.27468
3.31317
3.30511
3.27186
3.29168
3.30557
3.25404
3.26153
3.28867
3.25977
3
3.30752
SCALARS cell_perimeter float
LOOKUP_TABLE default
6.93062
6.94254
6.96953
7.19398
7.12622
6.82756
7.06103
7.59421
6.93375
6.93105
7.38392
6.99939
6.81466
7.20838
7.03409
6.79306
7.18119
6.9673
6.95111
7.11495
6.91736
7.22188
7.22241
7.53086
7.53737
6.94009
8.1986
6.99548
6.85928
7.05188
6.95697
7.01952
8.27559
7.02692
7.01772
7.31136
7.85803
7.52691
7.83435
7.64333
8.28459
8.67999
8.19419
7.75832
7.38105
9.2511
7.80354
7.61845
8.04195
7.6584
8.12964
8.452
7.79353
8.08511
7.67983
7.21968
7.4401
7.3917
7.81978
7.32713
7.7379
9.27032
8.37819
7.03498
7.10063
7.21345
6.94561
7.02719
7.13752
6.88528
8.02411
7.02447
7.13099
7.08648
7.2426
7.21131
7.82847
7.22849
6.93693
7.88189
7.96621
6.79123
7.00923
8.02228
7.25831
7.99101
6.82514
7.99296
7.00101
6.99647
7.80228
7.31612
7.66178
7.10527
7.94216
7.96832
7.3505
6.92996
8.23828
7.1506
7.14978
6.93216
7.21276
7.87568
7.04892
7.01306
6.83192
7.1211
7.24158
8.43769
8.28752
8.47377
9.18855
7.19227
7.24714
7.08816
6.93773
7.744
8.01088
6.86567
7.62281
7.18818
8.78194
7.32107
7.28253
7.63974
7.0437
7.01223
7.57801
6.99717
7.2967
7.65698
7.36743
7.4871
7.11379
7.22063
7.08794
7.40757
6.86083
7.05876
7.97376
6.84456
7.56557
7.5426
7.36788
7.20846
7.60518
8.35211
6.92145
7.21181
7.19277
7.57158
7.10155
7.3159
6.92828
6.97385
7.91624
7.0594
7.71865
7.15194
7.11689
7.26333
8.17429
7.38427
7.01889
7.06142
7.00932
7.36043
7.30195
6.94785
8.71571
7.91267
7.10273
7.0521
7.10628
7.41405
7.12417
7.14611
7.55203
7.76765
9.45267
6.7925
7.29872
7.12109
6.94641
7.42275
6.88001
6.90855
7.0966
6.84877
7.86704
7.03562
7.64977
6.96887
6.94729
7.00303
7.53711
6.8483
7.40085
7.03781
7.50713
6.93751
7.35319
7.18581
7.05618
6.88879
8.64984
7.02533
6.9628
6.94874
8.3881
6.86056
6.92561
7.04718
7.05499
7.12937
7.05943
7.24088
7.07202
7.24456
6.83713
7.21524
6.92624
8.00888
6.85884
7.31407
7.03885
7.0376
7.41941
6.81047
7.32894
6.84851
6.90294
6.92547
6.99937
6.94607
6.91865
7.09032
6.87206
6.96626
7.0262
6.957
6.94909
7.08947
6.95108
6.83161
6.9767
7.03524
6.88821
6.96194
7.14982
7.35648
6.91444
6.89513
7.28142
6.90462
6.93002
6.90108
7.04522
6.89789
6.86962
6.97765
7.14983
7.06185
6.95262
7.03658
7.19414
7.34605
6.93631
6.8796
6.93515
6.90051
6.91325
7.09173
6.9897
7.09593
6.94245
6.98245
6.92521
7.08651
6.92411
6.8611
6.89873
17
3.3159
SCALARS cell_frequency_modifier float
LOOKUP_TABLE default
4.00325e+17
4.87838e+14
2.28717e+14
1.28091e+14
3.57363e+13
3.17911e+12
1.07397e+10
2.62659e+11
3.34566e+13
2.88791e+15
3.02401e+11
1.43608e+12
1.63509e+08
3.96349e+09
1.34748e+12
1.00753e+13
1.66588e+11
5.29419e+09
9.90311e+07
969954
1.36904e+08
1.99715e+09
3.79671e+10
5.65414e+09
1.18971e+08
5.51433e+06
654422
1.22762e+06
3.84717e+07
2.16578e+08
1.59764e+12
8.97051e+07
2.93473e+06
294609
10009.8
3.69336e+09
6.54209e+07
6.16567e+18
1.43554e+18
1.5651e+17
6.52963e+14
8.22606e+13
2.4956e+13
4.21539e+11
6.82714e+10
7.91707e+06
6.34644e+06
1.65913e+09
1.17286e+10
3.54117e+12
1.24657e+13
4.9792e+13
8.05165e+16
1.10874e+18
1.01395e+19
10000
4.89933e+16
5.12304e+12
24905.3
6.9868e+11
1.1149e+16
742535
2.39492e+07
5.70844e+13
1.21589e+10
4.78614e+10
644153
8.27516e+06
9.81882e+09
7.4191e+06
111696
147441
9.95636e+06
4.52627e+13
3.86025e+14
4.76297e+12
562991
3.12607e+09
1.70146e+11
6.6875e+18
63852.5
6.21257e+17
1.7152e+07
1.01576e+06
7.85353
8.55564e+17
3.29277e+12
1.46648e+17
9.02158e+06
3.63828e+09
9.29402e+17
10000
3.00389e+15
1.29433e+10
3.04698e+15
5.61399e+10
7.4732e+09
1.37085e+11
2.61327e+14
2.4236e+09
7.53335e+09
3.30457e+10
86820.8
3.3923e+07
6717.73
3.41363e+09
6.60063e+06
8865.99
129276
1.02978e+09
453288
2.67924e+08
3648.05
729356
5.83743e+08
40536.8
842352
85223.5
7.53312e+06
1363.54
214.901
104324
8.1042e+07
1948.99
12984.9
9794.26
599.428
178.812
1.65999e+06
1.69703e+06
32539.5
648894
100.44
21068.5
862.303
12700.7
2561.24
479.811
4038.59
8.25386
2.20042e+06
100403
191751
43872.8
164.872
46618.5
943.67
73385.6
4.84767
16918.8
123213
3699.58
521.45
1025.13
2048.23
155.269
1700.42
11744.8
7.56086
7.39838
132.848
238.832
42.6195
338.306
161.874
4.26937
8.16193
6510.56
104.918
5.15313
180559
772.409
97.4819
1.41236
100.897
506.593
380.951
54.7869
208.765
192979
193.19
6.8152
37.1528
10.92
74.4914
1126.59
10.3525
2.15482
1.54257
5.44866
13.819
27.2526
17.3299
105.669
25.7717
418.474
919.957
10.367
102.022
112.509
2.4165
223.262
29.3804
51.6398
77.8202
15.0043
104.402
19.7338
13.7593
35.5879
13.8028
4.77363
0.923822
10.5148
0.850504
1.12331
4.40206
1.70234
10.3378
27.1045
2.07858
85.1152
4.59957
31.8708
0.677974
0.852163
10.6808
61.1009
232.16
2.66113
184.134
3.47448
0.488711
0.736475
0.70912
0.734773
1.76521
4.31941
5.04643
2.47885
117.824
2.83329
572.431
1.2514
104.906
3.79054
1.07003
122.727
100.511
383.81
2.08473
0.888856
2.17098
3.49173
1.14023
1.07662
2.24148
0.882478
0.929406
2.54602
0.895964
0.685318
1.63657
1.59007
0.510678
1.71486
108.488
1.48923
9.28141
2.79842
1.56788
20.2593
1.08834
115.093
2.9479
1.4842
163.167
3.72172
3.28517
108.619
138.367
3.73983
181.078
1
1
SCALARS cell_area_modifier float
LOOKUP_TABLE default
100
1.08637
1.65982
0.36028
0.382174
0.425244
0.57114
0.332745
0.395528
100
0.475231
7.97183
0.317799
0.635241
0.896989
0.559842
0.302512
2.45022
0.409848
0.309121
0.312535
0.43505
0.445319
0.336704
0.347026
0.330801
0.290108
0.299313
0.310818
0.554358
100
1.2017
0.415871
0.58897
0.288628
100
0.403997
100
100
100
100
100
100
100
100
2.68246
100
100
100
100
100
100
100
100
100
100
100
100
100
100
100
0.843517
100
100
0.456084
4.01418
0.307442
0.372124
26.9524
0.351335
0.287164
0.377082
0.355751
4.32061
100
100
0.431732
0.379611
100
100
100
100
0.491746
0.582904
0.364926
100
1.31323
100
0.338719
2.56109
100
100
100
0.92635
100
100
100
0.607948
100
1.02722
2.16858
100
0.305781
100
1.17672
100
0.565435
0.319593
1.8804
100
100
100
11.098
2.34855
100
0.785021
0.358001
0.304138
100
0.293112
1.28345
0.374586
100
0.479255
0.300904
100
0.291602
0.321408
100
100
0.51879
100
100
0.340759
0.628191
0.428463
0.362588
100
0.349167
3.30994
100
6.98765
0.681107
100
100
0.422073
0.31427
100
0.6651
0.697904
1.00891
100
0.353529
0.401134
0.323244
0.325101
0.441842
1.15275
0.471274
2.96335
100
0.297738
1.22777
0.831131
0.392783
3.74834
0.649828
0.621295
1.81994
0.504906
100
0.614549
0.294638
1.41147
100
100
0.384772
0.344912
0.342823
100
1.06591
1.10763
0.29618
0.418949
0.334713
0.911433
0.44885
0.543708
1.12974
4.67769
1.34442
0.328879
0.326979
100
0.467382
100
100
5.0991
100
0.642452
0.796062
100
0.316025
0.43842
1.44757
0.369693
1.25499
1.52561
0.387406
13.8049
0.689403
0.483348
0.807418
0.657375
0.548982
0.882995
0.487511
1.04621
0.452438
0.459789
0.496056
0.533459
0.463554
1.76324
0.673008
0.819103
0.367294
5.60396
6.21978
0.576962
100
0.734112
0.406902
0.706617
0.595163
0.398311
0.390076
3.12707
0.528478
0.514078
100
0.869432
566
0.763833
100
0.774282
0.538535
100
100
51.4545
1.94502
0.724712
2.08856
2.81592
0.991243
0.523589
1.61254
0.412837
0.500442
0.974182
0.856278
0.601488
1.37713
0.71555
0.509451
1.70997
100
1.48556
9.27869
2.01423
1.56787
18.2581
0.743758
100
0.753662
0.957699
100
2.25498
0.941764
100
100
3.51553
100
1
1
SCALARS cell_Gaussian_modifier float
LOOKUP_TABLE default
4.00325e+15
4.49053e+14
1.37796e+14
3.55531e+14
9.3508e+13
7.47596e+12
1.88039e+10
7.89369e+11
8.45873e+13
2.88791e+13
6.36323e+11
1.80144e+11
5.14506e+08
6.23934e+09
1.50222e+12
1.79967e+13
5.50682e+11
2.1607e+09
2.41629e+08
3.13778e+06
4.38046e+08
4.59062e+09
8.52583e+10
1.67926e+10
3.42829e+08
1.66697e+07
2.25579e+06
4.10147e+06
1.23776e+08
3.90682e+08
1.59764e+10
7.46486e+07
7.05684e+06
500210
34680.6
3.69336e+07
1.61934e+08
6.16567e+16
1.43554e+16
1.5651e+15
6.52963e+12
8.22606e+11
2.4956e+11
4.21539e+09
6.82714e+08
2.95142e+06
63464.4
1.65913e+07
1.17286e+08
3.54117e+10