# vtk DataFile Version 2.0
2D-vertex
ASCII
DATASET UNSTRUCTURED_GRID
POINTS 538 float
0.0853938 -2.61752 0
2.54519 -2.51616 0
2.97522 -1.58729 0
1.99968 -0.475922 0
-0.272103 -0.231297 0
-1.0512 -1.6866 0
3.50945 -1.57726 0
4.12115 -0.750996 0
3.26603 0.797516 0
2.19238 0.529044 0
1.07142 1.82291 0
-0.611527 2.38087 0
-1.42924 1.14108 0
-1.60173 1.10547 0
-2.17585 -0.526122 0
-1.69987 -1.42999 0
4.69092 -0.936762 0
5.55016 -0.096327 0
3.79677 1.51093 0
3.50476 1.4538 0
2.68314 2.44577 0
1.59123 2.40955 0
1.11461 5.96363 0
0.16678 5.96945 0
-0.683007 4.16659 0
-1.96578 3.34465 0
-1.95089 1.47182 0
-3.26528 1.22313 0
-3.80484 0.221366 0
-3.52645 -0.498606 0
6.62339 -0.13764 0
7.28473 0.559509 0
7.17015 1.87903 0
5.01523 3.13281 0
5.51963 3.6924 0
3.22696 5.09239 0
2.55127 6.34847 0
1.60172 6.55133 0
0.701399 9.55372 0
-0.971413 9.63025 0
-0.681556 6.80805 0
-2.30147 5.94864 0
-3.35488 4.49679 0
-4.35204 4.56039 0
-5.10559 3.21196 0
-6.53424 2.94008 0
-6.84342 1.89379 0
-5.35421 0.500412 0
7.63422 2.49078 0
7.34739 3.53567 0
6.63118 3.97944 0
6.02578 6.04301 0
3.70988 7.30686 0
3.67107 8.08764 0
2.23652 9.64304 0
2.80143 10.3449 0
-1.99537 10.9258 0
-1.94455 10.1936 0
-3.1569 8.98867 0
-2.86963 6.93688 0
-4.57114 7.32416 0
-5.94818 6.07622 0
-7.90504 4.67145 0
-7.77084 4.12883 0
8.30776 3.90815 0
8.30791 3.91064 0
6.97279 5.98565 0
7.4576 7.17907 0
6.30572 8.45427 0
6.55504 9.12708 0
5.91568 10.1011 0
5.75507 10.4503 0
-2.79068 13.1818 0
-2.98377 12.9807 0
-6.37209 10.5187 0
-5.68442 9.64215 0
-6.39515 8.39277 0
-6.29326 8.17912 0
-8.8901 5.21029 0
-8.7402 4.84247 0
9.85899 4.13491 0
10.2331 5.08249 0
9.50577 6.11591 0
10.6942 6.47195 0
10.5099 8.01519 0
10.7624 8.75692 0
10.2356 13.5701 0
11.1341 15.9211 0
-9.97729 16.0754 0
-9.93804 15.8891 0
-10.3539 9.87681 0
-10.0372 9.30446 0
-10.3711 8.69685 0
-9.61839 7.56384 0
-10.3998 6.32573 0
-9.94438 5.33048 0
3.39562 -4.40418 0
4.61717 -3.89912 0
5.46591 -3.52495 0
7.87799 -2.0189 0
9.22756 -0.632444 0
10.6561 1.64093 0
10.7532 1.8 0
11.5091 2.84392 0
12.3922 4.7362 0
12.6434 5.5116 0
13.0208 9.04255 0
13.5556 16.4027 0
-13.1933 16.7099 0
-12.8713 9.85571 0
-12.7884 8.54605 0
-12.4118 5.98396 0
-11.5475 4.03728 0
-10.6968 2.93094 0
-10.0962 2.19944 0
-9.20048 0.863464 0
-7.30044 -1.29578 0
-5.25542 -2.72777 0
-3.18443 -3.76217 0
-0.209572 -4.65577 0
12.9359 10.8116 0
9.14524 10.8681 0
-13.116 12.5699 0
-10.4032 13.1901 0
-0.45565 3.84597 0
0.890627 3.90961 0
-1.95712 5.89425 0
-1.28598 4.17498 0
4.53612 5.24613 0
4.97232 6.15813 0
0.395919 11.0262 0
0.177479 10.0673 0
-1.21187 8.09768 0
-2.47914 7.82829 0
6.02504 6.04538 0
5.30772 7.99445 0
4.34584 8.52033 0
4.36785 9.73952 0
2.39634 11.2148 0
2.39423 11.2135 0
-2.6669 11.2736 0
-4.19929 9.77671 0
-3.75734 9.03378 0
-4.68258 7.90015 0
1.16533 1.19534 0
-0.322357 0.23927 0
6.35477 2.15228 0
5.20355 0.640027 0
5.01323 3.1343 0
3.01159 3.99573 0
-9.25853 11.4315 0
-6.1765 11.1423 0
3.00909 3.99571 0
1.56607 4.71671 0
-9.59767 7.49931 0
-8.17488 6.86321 0
-1.0849 -1.70255 0
-1.57427 -4.37686 0
5.76836 32.6328 0
6.46685 34.2304 0
0.908818 -2.29917 0
1.06378 -0.853695 0
2.60515 8.51451 0
1.38829 7.48022 0
8.95565 10.3733 0
5.91671 10.1034 0
9.51417 21.8452 0
0.354619 12.7257 0
-2.9733 -0.768623 0
-3.7439 -3.5103 0
-4.55465 2.27468 0
-5.4647 1.1236 0
-5.88948 -2.33793 0
-4.77145 0.0926686 0
0.409193 8.00335 0
-0.580852 7.56749 0
9.46233 5.95421 0
7.81574 5.23128 0
5.34447 -0.620156 0
6.98438 -2.67683 0
1.33989 -4.77248 0
1.43964 -2.74858 0
-6.41894 1.26333 0
-8.04186 -0.591747 0
-5.57721 4.97566 0
-6.90318 3.78266 0
7.44816 2.00399 0
9.83499 0.222722 0
-12.6582 7.35914 0
-9.62577 7.55165 0
13.0447 7.54113 0
10.959 7.48736 0
-2.95747 3.55989 0
-3.88613 2.2472 0
-9.67665 1.61996 0
-6.89949 3.2244 0
-3.73339 6.7663 0
-4.51667 4.86814 0
-7.02413 7.02363 0
-6.60497 6.18659 0
8.48083 7.31413 0
8.73483 7.83945 0
-0.820571 12.6023 0
-0.699049 11.7746 0
12.9398 10.8208 0
10.4864 12.1123 0
10.383 14.5856 0
2.22696 11.5474 0
8.21201 9.02915 0
9.56602 9.79704 0
-7.57618 8.52759 0
-7.91959 9.33135 0
-2.31798 14.8079 0
1.0298 13.9183 0
-10.2902 13.7512 0
-4.33215 12.9353 0
9.56511 9.79938 0
12.9427 10.1778 0
-10.9797 15.105 0
-13.3257 15.6526 0
-12.9139 10.9185 0
-9.50159 11.0423 0
12.934 19.2207 0
10.5301 17.6766 0
8.81467 11.3197 0
6.71884 11.4727 0
-9.50147 11.0398 0
-7.59511 10.2346 0
2.68662 14.4583 0
4.50946 12.9836 0
-4.70197 11.5243 0
-3.87101 10.7232 0
5.30603 12.7741 0
4.37767 11.2707 0
13.3147 12.5956 0
10.7258 12.7339 0
-2.96404 14.4439 0
-4.87181 13.9131 0
-7.7982 28.7602 0
0.162914 15.3306 0
-6.82307 11.7957 0
-4.78817 13.2777 0
-12.9794 11.6719 0
-9.75384 12.1275 0
6.71915 16.7307 0
8.67539 15.2638 0
-0.938754 14.1523 0
-0.592604 12.83 0
-10.4991 19.5995 0
-13.1486 19.5552 0
3.27095 32.953 0
2.6199 15.3958 0
-3.21338 16.8218 0
-10.2787 20.0432 0
-10.9835 14.2795 0
-13.3033 13.7152 0
-6.93637 15.5264 0
-6.4608 14.2886 0
-6.69243 12.3954 0
-7.58602 13.4612 0
13.5485 14.5384 0
11.101 15.143 0
-10.6145 21.6452 0
-12.8212 22.7626 0
6.47976 12.4916 0
5.30776 12.7723 0
10.5024 16.5321 0
8.71324 16.0303 0
4.32573 13.9499 0
7.14668 16.3728 0
-2.10336 15.9177 0
-0.362216 16.2259 0
12.8314 24.7992 0
10.551 24.4083 0
0.535315 15.2609 0
1.61937 16.0513 0
9.97227 26.7384 0
4.47047 16.0983 0
13.4224 13.564 0
10.5521 13.992 0
-8.73174 15.234 0
-8.85197 14.3268 0
-9.64901 12.428 0
-7.61235 13.104 0
-10.1508 19.0195 0
-6.56954 17.0629 0
1.33993 33.738 0
1.05857 35.4749 0
2.04237 13.7894 0
2.79129 12.3458 0
-4.09312 16.0822 0
-4.13289 15.1895 0
-13.1467 18.4143 0
-10.5012 18.4192 0
0.096206 17.5041 0
-0.155082 17.3616 0
8.19044 13.5856 0
7.76712 14.3906 0
9.08489 11.9153 0
8.02655 13.2148 0
-10.8694 20.8364 0
-13.1296 20.8024 0
-2.6314 16.7443 0
-1.6467 17.9694 0
1.86457 16.9809 0
3.86764 17.0525 0
6.76924 14.4856 0
6.55294 14.899 0
-7.70453 18.699 0
-7.46689 18.9793 0
-9.52006 16.5801 0
-6.82079 16.4634 0
4.42136 15.981 0
5.10531 14.9245 0
-9.70248 23.5014 0
-3.88126 18.2727 0
12.6011 26.3024 0
10.7736 25.9125 0
-10.2746 29.8872 0
-8.40008 28.4648 0
9.15661 18.0317 0
8.14035 16.6165 0
12.702 21.0185 0
9.97891 21.0382 0
4.7158 18.3194 0
6.60142 19.3514 0
1.65137 19.1765 0
4.0244 18.6997 0
-0.397767 25.2537 0
-2.77598 23.9786 0
-2.80577 22.2401 0
-4.44494 20.1437 0
-6.57777 16.0396 0
-4.31965 15.1113 0
-9.37484 21.8834 0
-8.22316 20.2634 0
6.90165 24.4686 0
7.66901 21.4461 0
-13.151 17.3427 0
-9.87108 17.2928 0
-9.84375 17.3408 0
-7.61172 17.9338 0
0.0700538 19.3529 0
0.32536 19.0408 0
6.41114 31.7844 0
2.27415 22.2839 0
9.5518 32.303 0
8.53804 31.0586 0
-12.3647 26.0716 0
-10.4267 25.3158 0
-5.64516 17.2685 0
-5.33841 18.1668 0
8.81529 18.6404 0
7.5908 18.3514 0
1.78244 17.0988 0
2.30962 18.1718 0
10.7752 17.1413 0
13.4097 17.4571 0
12.7611 19.7629 0
9.1408 18.3964 0
-9.61061 25.8656 0
-4.39045 20.328 0
-1.98391 18.8652 0
-3.5196 18.9299 0
3.64695 22.8733 0
4.46468 22.3231 0
-5.95471 18.9732 0
-5.62824 19.8707 0
4.74759 18.0277 0
6.72225 17.2442 0
-1.56413 21.8603 0
-0.0336304 23.1829 0
1.62735 28.5678 0
5.82167 30.3242 0
-3.12729 32.9413 0
-3.64592 34.4835 0
-0.590967 32.7188 0
-1.66298 24.9375 0
-12.7432 24.0815 0
-10.5363 24.2562 0
-1.65088 19.3203 0
-3.43906 20.6854 0
-7.0021 22.092 0
-5.60238 21.88 0
8.6128 28.6503 0
6.77897 29.2293 0
5.46115 21.0304 0
7.02055 21.8699 0
10.3415 24.6276 0
8.1543 23.9145 0
12.8163 22.9114 0
10.4749 23.4903 0
-8.58914 27.4989 0
-3.40037 21.8848 0
11.0151 30.3832 0
9.38649 29.7453 0
2.71392 20.3373 0
4.05101 19.6584 0
-11.8977 27.3044 0
-9.75751 26.5504 0
-0.274784 26.7062 0
3.75143 23.9751 0
0.520114 20.5362 0
2.11755 21.0393 0
-8.16819 20.4048 0
-6.80674 20.8643 0
9.27523 19.8753 0
7.65681 20.25 0
-1.20223 21.0316 0
-1.956 20.0898 0
12.7222 20.0304 0
9.27681 19.8733 0
-1.87617 24.2861 0
-0.843142 23.0563 0
-5.30873 22.4611 0
-4.41754 22.645 0
-3.65071 24.5647 0
-4.22825 24.2512 0
-12.7986 22.9032 0
-9.81074 23.1108 0
4.85614 24.4924 0
5.8596 23.8518 0
0.392825 28.6646 0
0.753988 33.0291 0
-7.44158 23.3944 0
-6.60272 24.372 0
-0.065476 33.2053 0
-0.506721 35.2564 0
-5.12867 28.6532 0
-3.28323 29.7131 0
9.62527 22.7988 0
8.26539 23.2446 0
12.2276 27.7841 0
10.1467 27.2608 0
5.84685 23.0642 0
7.02481 22.3824 0
2.69632 20.6736 0
4.43885 21.6644 0
2.9369 24.5772 0
2.95771 27.977 0
5.44128 20.4273 0
6.62893 19.66 0
1.6937 22.7677 0
1.9548 24.1878 0
12.7335 21.98 0
9.80242 22.2662 0
-1.40685 30.4064 0
-1.27279 28.9541 0
-6.91977 30.5223 0
-7.8945 32.3322 0
0.0950493 21.0575 0
0.612142 22.4642 0
-6.3002 24.327 0
-5.64412 24.9693 0
-9.17447 22.3461 0
-7.00263 22.0895 0
6.41146 27.5286 0
8.19672 26.287 0
-10.9694 28.9495 0
-9.23471 27.3733 0
-5.70245 26.3013 0
-5.12073 26.5715 0
3.08519 30.5698 0
5.32593 30.2437 0
-5.0715 31.1724 0
-4.38059 29.7429 0
6.2048 27.8604 0
4.20954 26.9598 0
2.23286 27.8224 0
1.40023 26.4322 0
-3.67522 25.6641 0
-2.88353 26.3292 0
2.83243 33.6407 0
3.34717 35.3144 0
0.358019 24.573 0
1.1659 24.8453 0
-7.58264 25.7786 0
-7.44579 26.4439 0
2.69588 32.0241 0
1.2218 32.0807 0
-2.4031 26.2273 0
-1.45613 27.2153 0
7.75152 31.0156 0
7.23808 29.3583 0
-1.52975 33.0447 0
-1.95413 34.9631 0
-2.02212 32.6222 0
-1.9508 30.7559 0
8.62392 26.1012 0
8.92187 24.6464 0
-6.55388 28.1092 0
-6.5292 26.8392 0
8.72413 28.3027 0
7.93443 27.4119 0
-0.408672 31.0012 0
0.137927 30.6832 0
-8.69751 23.9245 0
-8.65118 25.3582 0
8.02376 33.4153 0
7.16273 31.8578 0
11.4398 29.5854 0
9.63652 28.1524 0
4.70546 32.4639 0
4.36134 31.246 0
0.181612 28.462 0
0.354825 27.0966 0
-4.46416 32.0401 0
-5.28656 33.8086 0
3.08289 25.7547 0
1.94699 26.651 0
4.76251 29.0817 0
5.31564 27.9046 0
4.96393 25.7098 0
4.18037 26.2574 0
-2.78435 28.7108 0
-1.76168 28.5055 0
6.88665 25.4187 0
5.92573 26.102 0
3.50001 29.1311 0
3.08728 30.5684 0
-6.34654 30.4054 0
-5.80884 28.7642 0
4.24567 33.0345 0
4.93369 34.8437 0
-4.70734 27.8634 0
-3.43591 27.8289 0
-3.87116 31.9921 0
-2.91674 30.4696 0
2.04783 29.9764 0
0.829667 30.993 0
-9.44272 30.942 0
-7.81769 29.7549 0
-6.63204 33.1059 0
-5.69029 31.2338 0
-0.568479 32.5069 0
1.00407 31.4768 0
1.00843 28.6163 0
1.35994 26.4578 0
CELLS 270 1803
5 0 160 161 4 5
6 3 2 6 7 8 9
6 3 9 144 145 4 161
8 156 5 4 145 12 13 14 15
8 7 16 178 17 147 18 19 8
7 19 20 21 10 144 9 8
6 153 22 23 24 124 125
8 25 26 13 12 11 124 24 127
7 27 28 29 168 14 13 26
6 17 30 31 32 146 147
7 18 33 148 149 152 20 19
5 20 152 153 125 21
7 22 37 163 174 175 40 23
5 24 23 40 126 127
5 26 25 192 193 27
7 28 27 193 170 171 47 173
9 34 148 33 146 32 186 48 49 50
5 35 128 129 52 36
6 36 52 53 162 163 37
6 38 54 55 139 130 131
7 40 175 132 133 59 41 126
6 42 41 59 196 197 43
7 44 43 197 184 185 195 45
8 49 64 65 177 66 134 51 50
7 51 134 135 136 53 52 129
6 53 136 137 55 54 162
8 55 137 70 165 71 233 138 139
7 57 56 140 231 141 142 58
7 59 133 58 142 143 60 196
6 61 60 143 77 198 199
5 65 80 81 176 177
6 67 200 201 208 69 68
7 69 208 209 216 164 165 70
5 71 225 264 265 233
8 73 72 236 291 333 237 241 215
5 92 93 210 211 91
8 77 76 210 93 189 154 155 198
5 2 1 96 97 6
5 7 6 97 98 16
5 17 178 179 99 30
4 48 186 187 101
5 49 48 101 102 64
5 65 64 102 103 80
6 82 176 81 104 105 83
4 190 191 83 105
5 121 164 216 217 120
5 214 254 255 122 123
5 91 90 109 110 92
5 110 188 189 93 92
5 78 95 112 113 79
5 62 79 113 114 63
5 195 185 63 114 194
4 47 116 172 173
5 14 168 169 118 15
5 5 156 157 119 0
5 160 0 119 180 181
4 99 100 31 30
4 103 104 81 80
5 293 284 248 249 292
4 111 112 95 94
5 182 183 116 47 171
6 120 204 205 298 224 121
5 122 242 243 282 123
5 124 11 10 21 125
6 126 41 42 192 25 127
5 128 34 50 51 129
6 130 203 56 57 39 131
5 132 39 57 58 133
5 134 66 67 68 135
6 136 135 68 69 70 137
8 138 207 167 247 202 203 130 139
5 140 73 215 230 231
6 142 141 75 76 77 143
5 144 10 11 12 145
4 146 33 18 147
5 148 34 128 35 149
7 150 221 226 227 74 151 240
7 152 149 35 36 37 22 153
5 154 94 95 78 155
4 156 15 118 157
4 222 223 356 357
6 160 181 1 2 3 161
5 162 54 38 174 163
6 164 121 224 225 71 165
7 166 445 430 431 435 387 337
4 168 29 117 169
6 170 44 45 46 182 171
5 172 117 29 28 173
6 174 38 131 39 132 175
6 176 82 200 67 66 177
4 178 16 98 179
4 180 96 1 181
4 182 46 115 183
6 184 61 199 62 63 185
5 186 32 31 100 187
5 188 111 94 154 189
5 190 106 85 84 191
6 192 42 43 44 170 193
5 194 115 46 45 195
5 196 60 61 184 197
6 198 155 78 79 62 199
6 200 82 83 191 84 201
6 202 72 73 140 56 203
4 204 234 235 205
6 206 261 87 266 267 245
5 208 201 84 85 209
6 210 76 75 74 227 211
6 167 213 274 239 246 247
6 214 123 282 283 259 281
5 216 209 85 106 217
5 218 89 88 108 219
5 220 109 90 226 221
5 222 358 359 320 223
5 224 298 299 264 225
5 226 90 91 211 227
5 228 288 289 229 268
6 230 151 74 75 141 231
7 232 229 289 207 138 233 265
5 234 278 279 86 235
7 236 212 270 302 252 290 291
6 253 248 284 308 309 335
6 240 151 230 215 241 258
5 242 220 221 150 243
6 244 277 312 313 307 269
6 246 212 236 72 202 247
5 248 253 300 301 249
8 271 239 274 275 304 354 294 295
6 252 302 303 362 363 315
4 254 218 219 255
5 256 280 281 259 257
6 258 241 237 257 259 283
4 260 107 87 261
4 448 449 530 531
7 264 299 296 297 306 232 265
6 356 223 320 321 267 266
6 268 229 232 306 307 313
5 270 212 246 239 271
5 272 316 317 388 273
6 274 213 288 228 251 275
7 276 433 501 492 493 457 488
5 278 260 261 206 279
6 280 89 218 254 214 281
6 282 243 150 240 258 283
5 284 293 340 341 308
4 286 472 473 287
5 288 213 167 207 289
7 311 332 333 291 290 350 285
5 292 338 339 340 293
6 328 377 412 413 371 474
6 296 86 279 206 245 297
6 298 205 235 86 296 299
4 300 262 263 301
5 302 270 271 295 303
6 304 275 251 312 277 305
7 306 297 245 267 321 269 307
7 308 341 285 350 351 366 309
7 310 88 89 280 256 332 311
5 312 251 228 268 313
7 314 419 454 455 382 424 496
5 316 432 433 276 317
5 318 458 459 392 319
8 320 359 352 353 369 244 269 321
5 322 444 445 166 323
5 324 368 369 353 325
5 326 343 294 354 355
6 376 534 535 479 423 426
6 330 329 416 417 415 393
5 332 256 257 237 333
6 334 262 300 253 335 404
6 336 421 434 435 431 389
5 338 108 88 310 339
6 340 339 310 311 285 341
7 343 342 380 362 303 295 294
6 344 158 502 503 463 373
5 346 498 499 482 347
4 348 378 379 349
5 350 290 252 315 351
7 352 411 406 407 441 325 353
7 354 304 305 368 324 327 355
5 356 266 87 107 357
5 358 410 411 352 359
6 360 349 379 314 496 497
7 362 380 409 381 361 331 363
6 364 345 403 436 437 365
6 366 351 315 363 331 367
5 368 305 277 244 369
6 408 450 451 371 413 370
6 438 508 509 469 475 443
5 486 484 485 375 374
7 446 494 534 376 484 486 487
5 378 418 419 314 379
6 380 342 402 450 408 409
7 382 455 405 367 331 361 383
5 384 395 347 482 483
6 386 440 441 407 337 387
5 388 317 276 488 489
4 390 272 273 391
7 392 459 399 360 497 476 477
4 394 346 347 395
5 396 326 355 327 397
5 398 348 349 360 399
7 400 328 474 475 469 537 505
7 402 342 343 326 396 436 403
6 404 335 309 366 367 405
5 406 323 166 337 407
6 408 370 330 393 381 409
5 410 322 323 406 411
5 412 329 330 370 413
6 414 383 361 381 393 415
7 521 490 491 460 461 524 428
6 418 263 262 334 454 419
6 420 401 364 365 434 421
6 536 372 528 529 495 422
6 424 382 383 414 452 425
5 426 423 286 287 427
6 428 524 525 514 429 465
7 430 391 273 388 489 389 431
4 432 500 501 433
6 434 365 437 386 387 435
6 436 396 397 440 386 437
6 438 401 420 512 513 508
6 440 397 327 324 325 441
6 442 345 364 401 438 443
5 444 390 391 430 445
7 446 487 527 429 514 515 447
5 464 506 507 532 533
6 450 402 403 345 442 451
5 452 414 415 417 453
5 454 334 404 405 455
6 512 420 421 336 516 517
4 458 398 399 459
6 460 453 417 416 470 461
7 518 519 462 528 372 468 439
6 464 533 520 521 428 465
6 466 385 373 463 510 511
6 468 372 536 537 469 509
7 470 416 329 412 377 480 471
5 472 250 522 523 473
6 474 371 451 442 443 475
7 476 425 452 453 460 491 477
6 478 250 472 286 423 479
5 480 377 328 400 481
6 482 499 344 373 385 483
5 484 376 426 427 485
5 486 374 526 527 487
6 488 457 516 336 389 489
6 490 238 319 392 477 491
7 492 384 483 385 466 456 493
6 494 446 447 504 422 495
5 496 424 425 476 497
5 498 159 158 344 499
6 500 394 395 384 492 501
7 522 250 478 462 519 503 502
6 504 447 515 481 400 505
5 526 374 375 507 506
6 508 513 467 439 468 509
5 510 518 439 467 511
7 512 517 456 466 511 467 513
6 514 525 471 480 481 515
5 516 457 493 456 517
5 518 510 463 503 519
6 520 448 531 238 490 521
5 522 502 158 159 523
5 524 461 470 471 525
6 526 506 464 465 429 527
6 528 462 478 479 535 529
5 530 318 319 238 531
5 532 449 448 520 533
5 534 494 495 529 535
5 536 422 504 505 537
CELL_TYPES 270
7
7
7
7
7
7
7
7
7
7
7
7
7
7
7
7
7
7
7
7
7
7
7
7
7
7
7
7
7
7
7
7
7
7
7
7
7
7
7
7
7
7
7
7
7
7
7
7
7
7
7
7
7
7
7
7
7
7
7
7
7
7
7
7
7
7
7
7
7
7
7
7
7
7
7
7
7
7
7
7
7
7
7
7
7
7
7
7
7
7
7
7
7
7
7
7
7
7
7
7
7
7
7
7
7
7
7
7
7
7
7
7
7
7
7
7
7
7
7
7
7
7
7
7
7
7
7
7
7
7
7
7
7
7
7
7
7
7
7
7
7
7
7
7
7
7
7
7
7
7
7
7
7
7
7
7
7
7
7
7
7
7
7
7
7
7
7
7
7
7
7
7
7
7
7
7
7
7
7
7
7
7
7
7
7
7
7
7
7
7
7
7
7
7
7
7
7
7
7
7
7
7
7
7
7
7
7
7
7
7
7
7
7
7
7
7
7
7
7
7
7
7
7
7
7
7
7
7
7
7
7
7
7
7
7
7
7
7
7
7
7
7
7
7
7
7
7
7
7
7
7
7
7
7
7
7
7
7
7
7
7
7
7
7
7
7
7
7
7
7
CELL_DATA 270
SCALARS cell_division_count float
LOOKUP_TABLE default
1
0
1
0
0
0
1
0
0
1
1
1
1
1
1
1
0
1
1
1
1
1
1
0
1
1
1
1
1
1
1
1
2
4
3
1
1
0
0
1
1
0
0
0
1
2
3
0
1
0
0
1
1
1
1
1
0
0
3
0
1
2
3
1
1
1
1
1
1
1
2
2
1
1
1
1
2
1
1
1
3
1
1
2
9
1
1
1
1
1
1
1
1
1
1
1
1
1
1
1
1
1
2
3
5
2
1
3
5
2
2
2
5
3
2
4
2
3
5
5
6
3
3
6
3
4
6
9
3
5
4
4
8
5
6
6
5
4
5
13
5
5
5
7
5
4
6
4
10
5
3
4
6
6
6
7
6
6
11
7
8
7
6
7
8
12
11
6
8
9
4
7
8
11
6
7
7
8
8
3
6
12
10
11
9
7
11
13
8
11
8
11
10
11
9
9
5
13
6
10
7
12
10
10
8
11
6
10
11
13
8
11
11
11
7
11
9
8
9
11
13
9
11
6
12
9
11
12
11
13
8
12
11
11
13
14
10
6
12
13
10
11
11
8
12
9
13
13
11
12
6
8
11
13
8
13
13
13
12
13
11
11
6
11
12
11
8
9
12
14
SCALARS cell_time float
LOOKUP_TABLE default
1591
2.22229e+13
1611
4.48239e+13
2.67348e+11
1.25633e+10
1621
2.68224e+09
9.19769e+11
1611
1611
1601
1571
1621
1541
1581
1.2276e+06
1621
1591
1621
1621
1521
1561
25403.4
1621
1621
1621
1621
1621
1511
1571
1511
1471
1211
1361
1461
1601
1.00108e+18
2.94533e+15
1571
1561
106703
2965.76
1677.34
1551
1451
1251
1668.01
1561
4319.01
1936.18
1541
1581
1591
1601
1571
1.12104e+13
22786.3
1041
3657.96
1571
1491
1311
1621
1621
1621
1621
1621
1621
1621
1501
1381
1621
1611
1611
1611
1441
1601
1601
1601
741
1591
1591
1451
371
1591
1581
1581
1571
1571
1571
1571
1571
1561
1561
1561
1551
1541
1541
1521
1511
1511
1501
1371
1191
1471
1461
1311
1091
1451
1451
1451
741
1031
1441
1061
1381
1371
1101
1061
951
1331
1311
941
1311
1031
1041
731
1251
1101
1231
1231
11
1041
931
961
1161
941
1131
161
1101
1101
1091
791
221
1061
831
811
461
1041
1031
1031
1031
1021
961
761
951
941
301
371
291
751
341
681
751
1
431
831
821
371
811
791
791
141
151
621
761
481
751
741
471
161
611
371
691
681
311
101
181
171
431
481
601
191
371
171
571
201
551
551
541
211
521
491
481
481
471
461
441
171
431
421
31
411
411
61
371
151
371
371
91
371
361
341
91
11
311
311
301
81
291
291
81
71
101
1
231
71
211
201
201
201
191
181
51
171
171
161
161
161
151
151
141
121
111
101
101
91
91
81
81
71
71
61
51
31
11
11
1
1
SCALARS cell_area float
LOOKUP_TABLE default
3.24275
3.30091
3.29423
3.35717
3.35216
3.34472
3.32814
3.37682
3.34976
3.28233
3.33798
3.2852
3.38593
3.32057
3.30746
3.33107
3.40033
3.29009
3.34619
3.39369
3.39187
3.34165
3.34092
3.37409
3.36108
3.37683
3.43465
3.40338
3.3922
3.33112
3.24888
3.30017
3.34579
3.32682
3.44355
3.25266
3.34815
3.25333
3.26189
3.24943
3.23835
3.27974
3.26349
3.28093
3.22249
3.29032
3.26322
3.26592
3.2612
3.25012
3.26966
3.27499
3.21748
3.25796
3.24544
3.2428
3.21054
3.21897
3.27885
3.19827
3.24725
3.30923
3.27538
3.28211
3.33924
3.28839
3.3953
3.35194
3.28387
3.36057
3.44502
3.35123
3.35789
3.28799
3.24866
3.2772
3.34215
3.35221
3.23381
3.22285
3.23083
3.25938
3.3349
3.32765
3.35298
3.22351
3.29801
3.25318
3.37092
3.28984
3.22535
3.20441
3.2172
3.30572
3.25274
3.24728
3.26125
3.32577
3.26452
3.30223
3.29197
3.26655
3.39571
3.2404
3.29984
3.2456
3.33013
3.38251
3.29249
3.28111
3.26734
3.27507
3.28513
3.29095
3.24997
3.309
3.35637
3.39849
3.26506
3.42132
3.29625
3.35154
3.27796
3.33573
3.39824
3.27433
3.42938
3.38044
3.22282
3.27833
3.33234
3.21764
3.23503
3.36819
3.32098
3.34308
3.35468
3.27203
3.3583
3.32371
3.26022
3.28514
3.31672
3.27186
3.23894
3.3437
3.38809
3.27941
3.30704
3.31691
3.3025
3.24498
3.35613
3.34596
3.38052
3.37823
3.33965
3.29788
3.33702
3.27494
3.27736
3.40247
3.29813
3.30663
3.34646
3.32438
3.31221
3.32242
3.29074
3.32922
3.28154
3.32319
3.40792
3.28582
3.27354
3.23112
3.34891
3.36247
3.36595
3.25157
3.30123
3.29059
3.4036
3.34056
3.37242
3.30374
3.33227
3.32256
3.29512
3.30036
3.2855
3.37308
3.37518
3.24214
3.33517
3.26383
3.24627
3.32843
3.22361
3.31574
3.26432
3.31298
3.38328
3.33858
3.29413
3.34746
3.2983
3.28547
3.34662
3.34434
3.31029
3.32957
3.26771
3.31562
3.29099
3.30803
3.33576
3.24974
3.33457
3.33441
3.32428
3.32949
3.33139
3.29189
3.33609
3.29317
3.34864
3.28402
3.28534
3.31776
3.23611
3.31088
3.31588
3.29999
3.28874
3.34325
3.33198
3.28882
3.32559
3.34574
3.28296
3.27386
3.27809
3.30165
3.26315
3.30457
3.31435
3.32309
3.30504
3.28497
3.29022
3.3038
3.31289
3.31046
3.29206
3.3138
3.26365
3.33338
3.30187
3.28115
3.25453
3.29407
3.29666
3.27899
3.29468
3.25923
3.27635
3.28116
3
3.26966
SCALARS cell_perimeter float
LOOKUP_TABLE default
6.93024
6.94008
6.9722
7.18897
7.12148
6.82824
7.06035
7.58285
6.93225
6.93382
7.38213
6.99752
6.81505
7.20373
7.03091
6.79115
7.17615
6.96587
6.95467
7.12214
6.91669
7.21573
7.21879
7.51836
7.52552
6.93673
8.20115
6.99182
6.85601
7.04907
6.95729
7.01092
8.27464
7.02631
7.02121
7.3036
7.84487
7.52302
7.82918
7.63816
8.27718
8.66772
8.18234
7.74634
7.37753
9.19056
7.77467
7.59912
8.02898
7.64903
8.11492
8.43679
7.78918
8.08111
7.67757
7.21803
7.43633
7.38871
7.80786
7.32494
7.73297
9.20266
8.33912
7.0336
7.0936
7.20809
6.94689
7.02449
7.13191
6.88664
8.03306
7.02229
7.1277
7.08891
7.24376
7.20734
7.8216
7.21995
6.93661
7.87947
7.92584
6.79062
7.00972
8.02956
7.18836
7.9866
6.82435
7.98786
6.99776
6.99396
7.79763
7.31525
7.65735
7.10064
7.9358
7.95732
7.34096
6.92586
8.22747
7.14568
7.14516
6.92705
7.21091
7.84516
7.02944
7.00873
6.82966
7.11302
7.23144
8.40093
8.24681
8.44011
9.07958
7.18556
7.24312
7.08756
6.9381
7.75825
7.96566
6.86926
7.56419
7.18386
8.74141
7.31592
7.28521
7.64204
7.04107
7.00046
7.5595
6.99044
7.28834
7.63308
7.33002
7.48421
7.09503
7.22144
7.0768
7.36197
6.85786
6.80544
7.93194
6.83788
7.55598
7.50558
7.30044
7.2074
7.5765
8.31563
6.87632
7.19667
7.17728
7.56647
7.08595
7.31185
6.92788
6.91977
7.87961
7.05667
7.41773
7.24388
7.50585
7.27369
8.07174
7.38139
7.01753
6.88562
7.02863
7.34572
7.22685
6.9193
8.66795
7.8691
7.09877
6.87413
7.09007
7.38504
7.11023
7.14009
7.5338
7.73313
9.31216
6.78414
7.26181
7.08236
6.92176
7.4161
6.88264
6.91
7.14931
7.0459
7.9185
6.99153
7.57619
6.97326
6.9445
6.90251
7.53459
6.80159
7.33155
7.02765
7.35195
6.911
7.27202
7.08758
7.03577
6.89988
8.52217
6.99077
7.01631
6.83077
8.3723
6.85869
7.08752
7.14836
7.19587
6.80265
6.91031
7.44232
7.07497
7.23596
6.80453
7.21008
6.86965
7.94866
6.77923
7.24488
6.97955
7.14594
7.27732
6.79149
7.47681
7.02579
7.13974
7.00434
6.92323
6.90094
6.80108
7.1353
6.85713
6.93523
6.85617
6.90384
7.02378
7.24942
7.02846
6.90302
6.8832
6.98138
7.11549
6.94834
7.10018
7.5867
7.02001
6.92839
7.15231
6.9169
6.90696
6.9406
6.92328
6.94045
6.88435
6.88454
7.13963
6.96726
6.9771
6.91863
7.37421
7.27377
17
3.27809
SCALARS cell_frequency_modifier float
LOOKUP_TABLE default
3.38512e+17
3.81801e+14
1.50362e+14
9.95837e+13
2.7017e+13
2.22429e+12
6.46478e+09
1.72008e+11
2.4082e+13
1.74221e+14
1.96168e+11
4.54985e+11
9.26988e+07
2.42415e+09
8.35513e+11
6.65186e+12
1.09736e+11
2.8505e+09
5.49863e+07
514964
7.71284e+07
1.1632e+09
2.25879e+10
3.39528e+09
6.72013e+07
2.94175e+06
341359
635347
2.08308e+07
1.09477e+08
9.53702e+11
4.38087e+07
1.49166e+06
147219
4953.81
1.76964e+09
3.21237e+07
5.82549e+18
1.29624e+18
1.32006e+17
4.62409e+14
5.48197e+13
1.60615e+13
2.16561e+11
3.74978e+10
3.0274e+06
2.66981e+06
7.53587e+08
5.54121e+09
1.92544e+12
7.12551e+12
2.9922e+13
6.16789e+16
9.49053e+17
9.48642e+18
10000
3.98328e+16
3.14671e+12
11244.6
3.58488e+11
7.97822e+15
339731
1.02778e+07
3.58278e+12
7.33549e+09
1.96056e+10
339569
4.50956e+06
1.25862e+09
3.95721e+06
58152.2
75684.6
5.16397e+06
2.13142e+13
2.70337e+14
2.96416e+12
268367
1.83711e+09
8.72245e+10
6.11556e+18
29132.8
5.38964e+17
9.27739e+06
504157
4.3372
7.19949e+17
1.99341e+12
1.15806e+17
4.93921e+06
1.89912e+09
8.2982e+17
10000
2.04046e+15
6.97109e+09
2.26415e+15
2.74136e+10
3.90241e+09
8.20382e+10
1.65229e+14
1.29272e+09
3.15498e+09
1.78696e+10
44685.6
1.56681e+07
3045.43
1.76235e+09
3.08953e+06
4605.11
49366
1.72748e+08
192967
1.189e+08
711.439
287245
2.72351e+08
21706.2
427059
43805.2
3.42858e+06
675.049
105.46
51710.7
3.54942e+07
977.395
6682.59
4606.65
312.308
89.9877
687851
786102
15160.1
287221
100.089
10521.9
417.988
6450.41
1325.29
284.463
2136.12
0.942771
985954
26910.6
88444.8
20427.3
164.872
24519
456.198
32174.6
3.67428
7717.09
56069.4
1848.47
274.335
543.743
994.528
74.6877
798.956
6557.93
3.78915
169.851
119.776
117.016
20.626
181.377
88.7479
0.630231
5.15127
3221.15
55.5487
3.35703
9114.74
360.372
50.6613
3.10054
105.099
317.001
186.624
27.9875
111.307
86885.8
89.2335
7.00624
18.3933
6.88106
36.5027
595.27
6.57031
1.6742
1.80122
1.12087
18.7505
14.8639
8.38906
102.01
14.494
246.209
495.207
1.06345
100.073
66.6858
200.811
1.68933
16.378
25.9135
40.6347
8.43662
46.9064
25.5486
6.8096
0.594139
8.37869
3.38507
103.147
5.26227
2.70237
0.948646
2.38681
124.615
6.53094
16.5043
1.77579
46.736
3.23008
16.112
0.491181
1.68158
6.47996
29.9949
67.6052
2.04572
141.605
2.05074
0.745943
1.14693
2.84721
0.592858
1.51094
3.5514
3.27256
1.03686
8.30844
210.756
100.06
1.42085
103.708
2.67294
0.987092
0.762192
0.932805
18.6275
2.51985
1.015
0.780987
1.04376
1.98009
1.20316
124.287
0.830805
1.43971
37.5394
101.566
1.60151
1.65951
167.511
1.38939
100.557
104.772
15.2141
1
1
SCALARS cell_area_modifier float
LOOKUP_TABLE default
100
1.05929
1.42553
0.3607
0.375877
0.420063
0.566596
0.331683
0.386724
8.12121
0.463668
3.94118
0.317912
0.656863
0.842767
0.532803
0.301802
2.27119
0.407295
0.310545
0.314185
0.440789
0.444444
0.33584
0.351245
0.329643
0.290358
0.298441
0.312354
0.527559
100
1.10288
0.41358
0.578834
0.288793
100
0.39528
100
100
100
100
100
100
89.3333
100
2.09375
100
100
100
100
100
100
100
100
100
100
100
100
100
100
100
0.804805
100
9.57143
0.455782
2.73469
0.308756
0.378531
6.23256
0.353562
0.287245
0.383954
0.358289
2.88172
100
100
0.437194
0.373259
100
100
100
100
0.489051
0.57265
0.370678
100
1.22936
100
0.342273
2.37168
100
100
100
0.884488
100
100
100
0.585153
100
0.981685
1.6962
100
0.306987
100
1.15021
100
0.538153
0.321729
1.59524
33.5
100
100
4.62069
1.87413
100
0.817073
0.363144
0.303511
100
0.293538
1.3202
0.381223
100
0.480287
0.305239
100
0.291939
0.325638
100
100
0.507576
100
100
0.344473
0.64891
0.433657
0.368132
100
0.35591
0.611872
100
4.25397
0.681934
100
100
0.426752
0.316038
100
0.85623
0.673367
0.964029
100
0.365621
0.410413
0.323671
0.327628
0.451939
1.25822
0.467714
100
100
0.300112
1.20179
0.87013
0.404223
0.598214
0.759207
0.641148
1.94203
0.554865
11.6522
0.618938
0.295154
3.04545
100
100
0.389535
0.348958
0.346701
100
1.03876
2.01504
0.296788
0.448161
0.340102
0.946996
0.512428
0.63357
1.35354
1.08065
3.22892
0.337957
0.333748
100
0.484629
100
100
0.560669
100
0.699739
100
0.738292
0.319809
0.459691
1.46448
0.398217
1.17544
3.4359
0.401198
0.423381
0.792899
0.543611
100
0.708995
1.81081
0.829721
0.476021
100
0.493554
0.498141
0.604966
0.54918
0.522417
1.75163
0.471831
1.54913
0.392387
5.58333
3.67123
0.665012
100
0.770115
0.690722
1.12605
2.60194
0.430177
0.517375
2.48148
0.591611
0.416796
7.05263
100
100
1.01901
100
0.914676
0.718499
0.626168
0.899329
5.0566
2.17886
0.930556
0.748603
0.781341
1.64417
0.728261
100
0.502814
1
20.6154
100
1.50562
1.28846
100
1.3886
100
100
14.8889
1
1
SCALARS cell_Gaussian_modifier float
LOOKUP_TABLE default
3.38512e+15
3.60431e+14
1.05478e+14
2.76085e+14
7.18774e+13
5.29513e+12
1.14099e+10
5.18593e+11
6.22716e+13
2.14526e+13
4.23079e+11
1.15444e+11
2.91586e+08
3.6905e+09
9.91392e+11
1.24846e+13
3.63605e+11
1.25507e+09
1.35004e+08
1.65826e+06
2.45487e+08
2.63889e+09
5.08228e+10
1.01098e+10
1.91323e+08
8.92404e+06
1.17565e+06
2.12889e+06
6.66896e+07
2.07516e+08
9.53702e+09
3.9722e+07
3.60669e+06
254337
17153.5
1.76964e+07
8.12682e+07
5.82549e+16
1.29624e+16
1.32006e+15
4.62409e+12
5.48197e+11
1.60615e+11
2.42419e+09
3.74978e+08
1.44592e+06
26698.1
7.53587e+06
5.54121e+07
1.92544e+10
7.12551e+10
2.9922e+11
6.16789e+14
9.49053e+15
9.48642e+16
100
3.98328e+14
3.14671e+10
112.446
3.58488e+09
7.97822e+13
422128
102778
3.7432e+11
1.60943e+10
7.16923e+09
1.0998e+06
1.19133e+07
2.01943e+08
1.11924e+07
202448
197119
1.44129e+07
7.39636e+12
2.70337e+12
2.96416e+10
613840
4.92182e+09
8.72245e+08
6.11556e+16
291.328
5.38964e+15
1.89702e+07
880393
11.7007
7.19949e+15
1.6215e+12
1.15806e+15
1.44306e+07
8.00748e+08
8.2982e+15
100
2.04046e+13
7.88149e+09
2.26415e+13
2.74136e+08
3.90241e+07
1.402e+11
1.65229e+12
1.31684e+09
1.86003e+09
1.78696e+08
145562
156681
2647.71
1.76235e+07
5.74099e+06
14313.6
30945.8
5.15665e+06
1929.67
1.189e+06
153.968
153269
2.72351e+06
26565.8
1.176e+06
144328
34285.8
2299.7
79.8824
135644
354942
2035.02
21893
46.0665
1069.77
276.343
6878.51
7861.02
29867.6
2872.21
1.00089
30544.9
644.138
14874.5
3600.04
2.84463
6001.85
1.5408
9859.54
6326
129697
204.273
1.64872
57454.9
1443.49
321.746
4.29123
11460.4
58161.5
18.4847
750.326
1324.87
3072.64
227.965
1767.84
5212.09
8.10144
1.69851
1.19776
389.909
17.1627
208.449
219.552
1.05352
6.78507
5024.03
28.6034
6.05018
782.235
582.243
171.643
1.01809
1.05099
3.17001
479.094
80.2028
321.046
868.858
85.9039
3.47698
61.9745
15.354
107.329
628.587
12.8219
2.64249
1.33075
1.03722
5.80707
43.9815
25.1359
1.0201
29.9075
2.46209
4.95207
1.89674
1.00073
95.301
2.00811
2.28816
51.2117
56.3716
27.7468
21.186
39.9055
7.43578
16.9732
1.40332
10.5672
6.22701
1.03147
7.42216
1.49235
1.14333
5.01408
1.24615
13.2325
33.1318
2.93536