# vtk DataFile Version 3.0
2D-vertex
ASCII
DATASET UNSTRUCTURED_GRID

POINTS 380 float
0.196824 -2.06939 0
2.72396 -1.91345 0
3.12953 -0.998918 0
2.15226 0.0780823 0
-0.189722 0.29414 0
-0.951722 -1.13326 0
3.7052 -0.977116 0
4.30005 -0.133871 0
3.4409 1.34515 0
2.32324 1.04653 0
1.17172 2.26662 0
-0.563027 2.83489 0
-1.37337 1.60414 0
-1.59711 1.5569 0
-2.13504 0.00501361 0
-1.65775 -0.877683 0
4.88372 -0.304399 0
5.76967 0.57667 0
4.00542 2.05949 0
3.66262 1.98537 0
2.85663 2.92624 0
1.70325 2.87447 0
1.19715 6.25083 0
0.122525 6.22754 0
-0.641686 4.46782 0
-1.99065 3.71975 0
-1.97255 1.94369 0
-3.32886 1.68228 0
-3.82928 0.750789 0
-3.54601 0.0407121 0
6.86152 0.566819 0
7.53959 1.33353 0
7.36228 2.6335 0
5.21115 3.71592 0
5.73117 4.31144 0
3.37926 5.53374 0
2.71258 6.68114 0
1.67854 6.86213 0
0.654787 9.64918 0
-1.09072 9.61114 0
-0.72502 7.03246 0
-2.47919 6.21328 0
-3.45802 4.87641 0
-4.54444 4.95331 0
-5.24394 3.73219 0
-6.69725 3.47736 0
-6.98819 2.50193 0
-5.43385 1.05556 0
7.86548 3.33806 0
7.5638 4.29714 0
6.8869 4.65969 0
6.23122 6.66063 0
3.8585 7.7275 0
3.7831 8.44218 0
2.30024 9.80864 0
2.89835 10.6139 0
-2.16672 10.8121 0
-2.13894 10.2347 0
-3.31904 9.13507 0
-3.03229 7.20738 0
-4.83402 7.68587 0
-6.1739 6.5521 0
-8.14446 5.31695 0
-8.01737 4.71888 0
8.54336 4.7494 0
8.54867 4.76744 0
7.21666 6.69687 0
7.60996 7.99853 0
6.45301 9.07409 0
6.66922 9.85443 0
6.02213 10.6708 0
5.99075 11.0496 0
-2.91944 13.0757 0
-3.09984 12.9255 0
-6.68468 11.0982 0
-6.00903 10.0342 0
-6.7295 8.97384 0
-6.59417 8.63893 0
-9.11254 5.97576 0
-8.95001 5.51803 0
10.0546 5.09108 0
10.3933 6.13344 0
9.68055 7.15533 0
10.7815 7.56616 0
10.5386 9.15968 0
10.7748 10.0058 0
9.70624 15.0761 0
9.69327 17.9341 0
-8.96673 17.8687 0
-9.02278 17.3915 0
-10.5612 11.0064 0
-10.2228 10.2825 0
-10.5801 9.71169 0
-9.82018 8.46693 0
-10.5586 7.23214 0
-10.1161 6.13842 0
3.58525 -3.75607 0
4.82521 -3.22046 0
5.70463 -2.81148 0
8.13312 -1.21259 0
9.4623 0.239545 0
10.8355 2.58104 0
10.9625 2.80531 0
11.7101 3.94539 0
12.503 5.91724 0
12.7223 6.76199 0
12.8659 10.4151 0
11.5741 19.0231 0
-11.2647 19.2079 0
-12.7634 11.1736 0
-12.7807 9.70299 0
-12.5104 6.98216 0
-11.7146 4.96383 0
-10.8814 3.78601 0
-10.2501 2.96663 0
-9.27179 1.49177 0
-7.31742 -0.709034 0
-5.2107 -2.15916 0
-3.0864 -3.19081 0
-0.0708437 -4.05835 0
12.5481 12.5354 0
9.27822 11.9997 0
-12.5507 14.6003 0
-10.2448 14.5822 0
-0.435721 4.1956 0
1.01252 4.29628 0
-1.99256 6.13136 0
-1.36628 4.46965 0
4.75723 5.73778 0
5.14913 6.68892 0
0.325292 10.9819 0
0.157995 10.1038 0
-1.3096 8.22143 0
-2.68276 7.94823 0
6.23066 6.66307 0
5.46019 8.52497 0
4.497 8.96619 0
4.42907 10.1308 0
2.54193 11.3328 0
2.54021 11.3309 0
-2.95355 11.2674 0
-4.50107 10.0533 0
-4.07573 9.23228 0
-4.93069 8.27424 0
1.26236 1.70719 0
-0.239215 0.701286 0
6.54804 2.8486 0
5.43627 1.23237 0
5.20902 3.71722 0
3.17339 4.45094 0
-9.38748 12.4477 0
-6.44532 11.6351 0
3.17098 4.45029 0
1.65106 5.10966 0
-9.74508 8.31227 0
-8.31861 7.57415 0
-1.00491 -1.15832 0
-1.46322 -3.78832 0
2.0688 24.9456 0
2.36996 26.4721 0
1.04511 -1.73086 0
1.17817 -0.328971 0
2.67632 8.81369 0
1.46055 7.67253 0
9.11171 11.3521 0
6.1078 10.8421 0
5.89474 22.0715 0
0.58189 12.5394 0
-2.94846 -0.244369 0
-3.68406 -2.92978 0
-4.68636 2.75682 0
-5.5486 1.67585 0
-5.88806 -1.75078 0
-4.80607 0.62026 0
0.429786 8.17518 0
-0.647356 7.67469 0
9.62892 6.90183 0
8.00563 6.08526 0
5.57363 0.0499456 0
7.21494 -1.92409 0
1.51361 -4.15797 0
1.58189 -2.17133 0
-6.52629 1.81975 0
-8.09564 0.0227262 0
-5.84121 5.43127 0
-7.12305 4.33614 0
7.67304 2.79339 0
10.0575 1.13948 0
-12.7033 8.39282 0
-9.82192 8.46512 0
12.9987 8.84957 0
10.999 8.67537 0
-3.07075 3.95649 0
-3.95188 2.71974 0
-9.77592 2.29257 0
-7.12412 3.81438 0
-3.94521 7.05575 0
-4.72126 5.29149 0
-7.28308 7.66033 0
-6.85611 6.6988 0
8.61451 8.22522 0
8.86312 8.87411 0
-0.866982 12.3126 0
-0.785802 11.7008 0
12.5512 12.7345 0
10.2074 13.5216 0
9.531 16.2976 0
2.41534 11.5619 0
8.263 9.92759 0
9.60248 10.9495 0
-7.91175 9.21357 0
-8.23019 10.1678 0
-2.31169 14.5165 0
1.14833 13.8075 0
-9.91465 15.2708 0
-4.4962 13.061 0
9.60193 10.9519 0
12.6588 11.7076 0
-10.0615 17.0248 0
-11.843 18.039 0
-12.6657 12.4812 0
-9.66075 12.099 0
9.74897 21.6724 0
8.32036 19.7404 0
8.89907 12.3958 0
6.86021 12.2507 0
-9.65113 12.0717 0
-7.84819 10.9635 0
2.6947 14.63 0
4.61634 13.418 0
-4.99951 11.8274 0
-4.16187 10.8315 0
5.31795 13.3342 0
4.60444 11.6402 0
12.5683 14.7119 0
10.3556 14.3772 0
-2.95594 14.2311 0
-4.96393 14.1777 0
-2.28203 24.099 0
0.239251 15.0544 0
-7.09058 12.4869 0
-4.98131 13.549 0
-12.6035 13.407 0
-9.83788 13.3244 0
5.79801 17.7612 0
7.90082 16.4368 0
-0.865904 13.7686 0
-0.554525 12.6128 0
-7.54731 21.7251 0
-9.04337 22.8979 0
1.13508 24.566 0
2.45521 15.6561 0
-2.93245 16.6815 0
-6.83561 22.0541 0
-10.395 15.9199 0
-12.4259 16.0286 0
-6.60064 16.2868 0
-6.42202 14.8559 0
-6.89555 12.9964 0
-7.604 14.3348 0
12.2065 17.1503 0
9.97884 16.9566 0
-5.29337 23.5338 0
-5.60345 25.3512 0
6.47583 13.215 0
5.31976 13.3324 0
8.92508 18.2923 0
7.64648 17.4177 0
4.26115 14.4132 0
6.31497 17.4986 0
-2.04059 15.5346 0
-0.26233 15.8137 0
7.22398 24.2535 0
5.82494 22.9092 0
0.523436 15.0308 0
1.56695 16.0551 0
3.98208 23.3211 0
4.02332 16.7961 0
12.407 15.9392 0
9.93636 15.6414 0
-8.15991 16.4639 0
-8.6055 15.4335 0
-9.65168 13.659 0
-7.72288 13.9141 0
-7.61284 20.9678 0
-5.82545 17.8121 0
0.387744 25.0479 0
0.426262 26.7033 0
2.11271 13.8084 0
2.99192 12.5499 0
-3.8773 16.1848 0
-4.11477 15.2522 0
-10.0241 21.5165 0
-8.41775 20.5421 0
0.348797 17.3712 0
-0.117539 16.9847 0
7.91468 14.6699 0
7.28747 15.404 0
9.09155 13.12 0
7.81389 14.1712 0
-6.70094 23.0198 0
-7.72856 24.2263 0
-2.51963 16.5409 0
-1.41499 17.5475 0
1.69422 17.327 0
3.174 17.6497 0
6.4548 15.3058 0
6.04769 15.8021 0
-6.04171 19.7476 0
-5.40558 20.0444 0
-8.46837 18.1434 0
-6.30655 17.2724 0
3.96852 16.4838 0
4.87744 15.5731 0
-4.35695 22.4437 0
-3.24156 18.3985 0
5.43237 25.4297 0
4.76157 23.5985 0
-3.39347 26.1113 0
-2.70841 24.1537 0
7.38461 19.6561 0
6.89189 17.8224 0
8.27751 23.2158 0
6.64822 21.7577 0
3.50527 19.5379 0
4.83235 20.5319 0
1.04664 19.634 0
2.95302 19.7473 0
0.256199 22.3999 0
-1.3599 22.6203 0
-1.79371 21.402 0
-2.83676 20.5369 0
-6.16922 16.648 0
-4.21088 15.2325 0
-4.45519 22.4505 0
-5.49405 21.3281 0
3.83241 21.8951 0
4.80492 21.344 0
-10.7664 20.1823 0
-8.53066 19.0772 0
-8.31895 19.2335 0
-6.36442 18.8752 0
-0.984214 19.426 0
0.0357323 18.9484 0
3.08401 23.8603 0
1.01946 20.6625 0
4.07404 25.9831 0
3.38311 23.915 0
-4.71134 25.6477 0
-3.769 23.2933 0
-5.05962 17.7298 0
-4.30583 18.683 0
6.9087 20.3785 0
6.02282 19.7835 0
1.6688 17.3535 0
1.96714 19.1073 0
8.96591 19.0799 0
10.9415 20.1667 0
9.08883 22.3487 0
7.08746 20.3294 0
-3.36339 23.2564 0
-2.32132 21.3486 0
-1.63786 18.9455 0
-2.39692 19.2027 0
2.28256 21.5018 0
2.8062 21.2596 0
-4.5526 19.6689 0
-3.59686 20.6505 0
3.75776 18.7346 0
5.57616 18.57 0
-0.955784 20.6039 0
0.195342 21.1501 0
1.11143 22.8873 0
2.13064 22.4745 0
-1.33885 25.1053 0
-1.58032 26.5631 0
-0.315761 24.6445 0
-0.426945 22.89 0
-5.15739 25.4995 0
-4.34342 22.4633 0

CELLS 570 1710
2 160 0
2 1 2
2 2 3
2 161 4
2 4 5
2 5 0
2 2 6
2 6 7
2 7 8
2 8 9
2 3 9
2 9 144
2 10 11
2 11 12
2 145 4
2 12 13
2 13 14
2 15 14
2 5 156
2 7 16
2 17 178
2 147 17
2 19 18
2 19 8
2 20 19
2 21 20
2 10 21
2 153 125
2 23 22
2 24 23
2 24 124
2 127 24
2 26 25
2 26 13
2 27 26
2 28 27
2 29 28
2 14 168
2 30 17
2 30 31
2 32 31
2 32 146
2 18 33
2 33 148
2 128 35
2 20 152
2 35 36
2 37 36
2 22 37
2 37 163
2 38 131
2 175 40
2 40 23
2 126 40
2 42 41
2 25 192
2 43 42
2 43 44
2 193 27
2 45 44
2 46 45
2 47 171
2 173 47
2 48 186
2 48 49
2 49 50
2 34 50
2 50 51
2 52 129
2 36 52
2 52 53
2 53 162
2 54 38
2 55 54
2 139 55
2 57 56
2 39 57
2 58 57
2 59 133
2 41 59
2 59 196
2 61 60
2 197 43
2 199 61
2 62 63
2 195 185
2 49 64
2 64 65
2 177 65
2 51 134
2 67 66
2 68 67
2 53 136
2 69 68
2 70 69
2 55 137
2 165 70
2 233 71
2 73 72
2 140 56
2 215 73
2 74 75
2 58 142
2 76 75
2 77 76
2 60 143
2 77 198
2 78 79
2 79 62
2 65 80
2 80 81
2 81 176
2 67 200
2 82 83
2 83 191
2 69 208
2 84 85
2 164 216
2 71 225
2 86 279
2 158 250
2 88 89
2 290 252
2 254 214
2 90 91
2 91 211
2 91 92
2 92 93
2 93 210
2 189 93
2 94 95
2 95 78
2 96 1
2 96 97
2 97 6
2 97 98
2 16 98
2 179 99
2 99 30
2 31 100
2 187 101
2 101 48
2 101 102
2 102 64
2 102 103
2 103 80
2 81 104
2 104 105
2 83 105
2 105 190
2 85 106
2 217 120
2 87 107
2 108 88
2 255 122
2 109 90
2 109 110
2 92 110
2 110 188
2 111 94
2 95 112
2 112 113
2 113 79
2 113 114
2 63 114
2 114 194
2 115 46
2 116 47
2 116 172
2 117 29
2 169 118
2 118 15
2 157 119
2 0 119
2 119 180
2 99 100
2 103 104
2 249 292
2 111 112
2 183 116
2 120 204
2 121 224
2 120 121
2 122 242
2 123 282
2 122 123
2 124 11
2 125 21
2 124 125
2 41 126
2 127 25
2 126 127
2 34 128
2 129 51
2 128 129
2 203 130
2 131 39
2 130 131
2 39 132
2 133 58
2 132 133
2 134 66
2 135 68
2 134 135
2 136 135
2 137 70
2 136 137
2 207 138
2 130 139
2 139 138
2 140 73
2 75 141
2 231 140
2 142 141
2 143 77
2 142 143
2 144 10
2 145 12
2 144 145
2 146 33
2 147 18
2 146 147
2 148 34
2 149 35
2 148 149
2 221 150
2 151 74
2 150 240
2 152 149
2 153 22
2 152 153
2 94 154
2 155 78
2 154 155
2 156 15
2 157 118
2 156 157
2 266 87
2 357 222
2 159 158
2 181 160
2 161 3
2 160 161
2 162 54
2 163 174
2 162 163
2 164 121
2 71 165
2 165 164
2 166 273
2 247 167
2 166 337
2 168 29
2 169 117
2 168 169
2 44 170
2 171 182
2 170 171
2 172 117
2 173 28
2 172 173
2 174 38
2 175 132
2 174 175
2 176 82
2 177 66
2 176 177
2 178 16
2 179 98
2 178 179
2 180 96
2 181 1
2 180 181
2 182 46
2 183 115
2 182 183
2 61 184
2 185 63
2 184 185
2 186 32
2 187 100
2 186 187
2 188 111
2 189 154
2 188 189
2 190 106
2 191 84
2 190 191
2 192 42
2 193 170
2 192 193
2 194 115
2 195 45
2 194 195
2 196 60
2 197 184
2 196 197
2 198 155
2 199 62
2 198 199
2 200 82
2 201 84
2 200 201
2 72 202
2 203 56
2 202 203
2 204 234
2 205 235
2 205 204
2 261 206
2 167 207
2 206 245
2 208 201
2 209 85
2 208 209
2 210 76
2 227 74
2 210 211
2 236 72
2 213 167
2 239 274
2 214 123
2 230 215
2 241 237
2 216 209
2 217 106
2 216 217
2 89 218
2 219 108
2 218 219
2 220 109
2 221 226
2 220 221
2 222 358
2 320 223
2 223 222
2 224 298
2 264 225
2 225 224
2 226 90
2 227 211
2 226 227
2 228 288
2 289 229
2 228 268
2 151 230
2 231 141
2 230 231
2 229 232
2 233 138
2 265 233
2 234 278
2 235 86
2 235 234
2 236 212
2 257 237
2 291 236
2 248 284
2 246 239
2 271 295
2 240 151
2 241 215
2 240 258
2 242 220
2 243 150
2 242 243
2 277 244
2 232 306
2 245 267
2 212 246
2 247 202
2 246 247
2 253 248
2 301 249
2 249 248
2 374 238
2 251 228
2 294 354
2 252 302
2 300 253
2 335 309
2 218 254
2 255 219
2 254 255
2 280 256
2 259 281
2 256 257
2 258 241
2 259 257
2 283 259
2 260 107
2 261 87
2 260 261
2 319 238
2 375 318
2 263 262
2 299 264
2 232 265
2 265 264
2 223 356
2 244 269
2 267 266
2 268 229
2 321 267
2 313 307
2 212 270
2 271 239
2 270 271
2 272 316
2 273 317
2 272 273
2 274 213
2 275 251
2 274 275
2 276 347
2 277 312
2 336 276
2 278 260
2 279 206
2 278 279
2 89 280
2 281 214
2 280 281
2 282 243
2 283 258
2 282 283
2 284 293
2 311 285
2 308 284
2 250 286
2 287 159
2 286 287
2 288 213
2 289 207
2 288 289
2 285 350
2 333 291
2 291 290
2 292 338
2 293 340
2 293 292
2 326 345
2 330 370
2 295 294
2 86 296
2 297 245
2 296 297
2 298 205
2 299 296
2 298 299
2 262 300
2 301 263
2 300 301
2 302 270
2 303 295
2 302 303
2 304 275
2 305 277
2 304 305
2 306 297
2 307 269
2 306 307
2 308 341
2 315 252
2 309 308
2 88 310
2 311 332
2 310 311
2 312 251
2 313 268
2 312 313
2 334 314
2 309 366
2 315 363
2 316 346
2 276 317
2 317 316
2 318 348
2 319 360
2 318 319
2 359 320
2 269 321
2 321 320
2 322 272
2 323 166
2 322 323
2 324 368
2 369 353
2 325 324
2 343 326
2 324 327
2 326 355
2 372 250
2 238 329
2 377 328
2 329 330
2 367 314
2 330 361
2 332 256
2 333 237
2 332 333
2 262 334
2 335 253
2 334 335
2 365 336
2 337 325
2 336 337
2 338 108
2 339 310
2 338 339
2 340 339
2 341 285
2 340 341
2 303 362
2 343 294
2 342 343
2 344 158
2 328 371
2 373 344
2 346 159
2 347 344
2 346 347
2 348 378
2 379 349
2 349 348
2 350 290
2 351 315
2 350 351
2 323 352
2 353 325
2 352 353
2 354 304
2 355 327
2 354 355
2 356 266
2 357 107
2 356 357
2 358 322
2 359 352
2 358 359
2 360 349
2 361 331
2 360 361
2 362 342
2 363 331
2 362 363
2 345 364
2 365 327
2 364 365
2 366 351
2 367 331
2 366 367
2 368 305
2 369 244
2 368 369
2 370 342
2 371 345
2 370 371
2 328 372
2 373 364
2 372 373
2 286 376
2 375 287
2 374 375
2 376 374
2 377 329
2 376 377
2 378 263
2 379 314
2 378 379

CELL_TYPES 570
3
3
3
3
3
3
3
3
3
3
3
3
3
3
3
3
3
3
3
3
3
3
3
3
3
3
3
3
3
3
3
3
3
3
3
3
3
3
3
3
3
3
3
3
3
3
3
3
3
3
3
3
3
3
3
3
3
3
3
3
3
3
3
3
3
3
3
3
3
3
3
3
3
3
3
3
3
3
3
3
3
3
3
3
3
3
3
3
3
3
3
3
3
3
3
3
3
3
3
3
3
3
3
3
3
3
3
3
3
3
3
3
3
3
3
3
3
3
3
3
3
3
3
3
3
3
3
3
3
3
3
3
3
3
3
3
3
3
3
3
3
3
3
3
3
3
3
3
3
3
3
3
3
3
3
3
3
3
3
3
3
3
3
3
3
3
3
3
3
3
3
3
3
3
3
3
3
3
3
3
3
3
3
3
3
3
3
3
3
3
3
3
3
3
3
3
3
3
3
3
3
3
3
3
3
3
3
3
3
3
3
3
3
3
3
3
3
3
3
3
3
3
3
3
3
3
3
3
3
3
3
3
3
3
3
3
3
3
3
3
3
3
3
3
3
3
3
3
3
3
3
3
3
3
3
3
3
3
3
3
3
3
3
3
3
3
3
3
3
3
3
3
3
3
3
3
3
3
3
3
3
3
3
3
3
3
3
3
3
3
3
3
3
3
3
3
3
3
3
3
3
3
3
3
3
3
3
3
3
3
3
3
3
3
3
3
3
3
3
3
3
3
3
3
3
3
3
3
3
3
3
3
3
3
3
3
3
3
3
3
3
3
3
3
3
3
3
3
3
3
3
3
3
3
3
3
3
3
3
3
3
3
3
3
3
3
3
3
3
3
3
3
3
3
3
3
3
3
3
3
3
3
3
3
3
3
3
3
3
3
3
3
3
3
3
3
3
3
3
3
3
3
3
3
3
3
3
3
3
3
3
3
3
3
3
3
3
3
3
3
3
3
3
3
3
3
3
3
3
3
3
3
3
3
3
3
3
3
3
3
3
3
3
3
3
3
3
3
3
3
3
3
3
3
3
3
3
3
3
3
3
3
3
3
3
3
3
3
3
3
3
3
3
3
3
3
3
3
3
3
3
3
3
3
3
3
3
3
3
3
3
3
3
3
3
3
3
3
3
3
3
3
3
3
3
3
3
3
3
3
3
3
3
3
3
3
3
3
3
3
3
3
3
3
3
3
3
3
3
3
3
3
3
3
3
3
3
3
3
3
3
3
3
3
3
3
3
3
3
3
3
3
3
3
3
3
3
3
3
3
3
3
3
3
3
3
3
3
3
3

CELL_DATA 570
SCALARS current_Length float
LOOKUP_TABLE default
0.913338
1.00043
1.4543
1.50313
1.61806
1.48172
0.576089
1.03194
1.71045
1.15686
0.983421
1.24978
1.82545
1.47356
0.410142
0.228673
1.64247
1.00347
0.0587938
0.608073
0.562023
0.735595
0.35072
0.677532
1.23889
1.15454
0.807473
1.03407
1.07488
1.9185
0.341359
0.7246
1.77615
0.539043
1.38127
1.0574
0.764495
0.850796
1.09189
1.02354
1.31201
0.842172
2.04879
0.00249772
1.39299
1.55613
1.32703
1.04976
0.778094
0.839205
0.673394
0.64691
1.16886
1.5552
1.65691
1.10574
1.08914
1.40727
1.21016
1.47548
1.01789
0.630817
0.763931
0.57767
1.0054
0.767873
1.20705
2.10564
1.65661
1.55177
0.718647
1.16746
1.65316
1.00309
0.801488
0.578143
1.21964
1.61298
0.819166
1.13761
0.925421
1.7552
0.381614
0.697813
0.611429
0.521763
1.07893
0.0188062
1.42532
0.00249479
1.35978
1.57967
0.885576
0.809729
1.04171
1.60516
0.191496
1.50687
0.234726
0.909036
1.40293
1.26041
0.762904
1.28194
0.361216
0.596256
1.19677
0.485728
0.830267
1.54028
1.09602
1.08384
1.02981
1.17508
1.13034
1.59546
0.878462
0.632825
1.48279
0.610351
1.00797
0.480448
1.06745
0.807546
0.799079
1.99588
0.673439
1.45837
2.04929
0.00251105
1.17984
1.01662
2.03398
1.3507
2.50739
0.969862
2.63805
1.16159
2.18707
2.21215
1.63812
3.06502
0.25773
3.10354
1.36335
2.01334
2.12073
0.872746
2.10081
2.10581
2.13084
0.835125
2.17333
2.65975
1.43377
2.20848
1.47075
2.20069
1.31245
1.9678
1.98364
1.44271
2.59426
1.03439
2.83819
0.824117
2.49705
2.58101
1.7687
2.75874
0.652179
2.71875
1.41832
2.0069
1.58758
1.9686
2.12527
1.69414
2.16957
1.06822
0.1991
0.548261
3.31346
1.19439
1.09734
2.30594
1.36665
1.58071
1.45174
0.493475
0.975796
1.77581
1.72714
1.08246
1.02872
1.32339
1.34238
0.893898
1.40684
1.34665
1.40007
0.986576
1.13456
2.01502
1.05944
1.6821
1.16656
0.261742
2.24226
0.00251075
1.66456
1.50809
1.28453
0.924619
1.70298
1.28405
0.566728
1.44964
1.80736
1.59359
1.65271
1.96169
0.791044
1.10219
2.16382
0.44299
0.587863
2.29723
0.00250415
1.22813
1.65678
1.35221
1.78471
1.60613
0.710606
1.72966
2.66964
0.847612
1.92072
1.55589
0.694368
1.05572
1.40819
1.06366
1.14679
1.66743
0.668658
0.238304
3.04691
0.840604
1.13878
1.31031
0.662063
1.71011
2.78433
1.1235
0.988223
1.38274
0.790944
0.985473
2.60625
1.49108
0.858775
1.18774
0.258705
0.998267
1.8171
0.775585
1.75172
2.56724
2.11027
1.17082
1.98781
0.823845
1.88186
2.38582
1.16916
0.972782
1.68596
0.349479
1.07896
2.90193
1.4238
0.171072
2.88234
1.57118
0.668277
2.00725
0.998107
0.73541
1.51854
0.946276
0.543874
3.05744
1.08951
1.12863
1.9274
1.0391
1.88927
1.05207
1.51033
1.6996
0.694883
2.1897
1.64215
0.617194
1.97752
0.868322
2.47251
0.796698
2.07778
1.6361
1.21241
1.50493
1.68479
1.20632
1.17128
1.00594
1.15608
1.38879
0.285156
0.763616
1.33234
0.628926
0.00250942
1.30899
3.1489
1.10155
1.30412
2.04997
1.31125
0.0289583
3.02919
0.94508
0.939549
2.40278
0.749376
1.03801
2.04402
1.40113
0.882661
2.1163
1.00681
1.84181
1.58138
1.45854
0.848925
1.30131
0.706599
2.0853
1.83718
1.23782
0.953958
2.23789
0.704636
1.6081
1.54448
0.760072
1.69542
1.17987
1.06857
0.688091
0.545602
0.927874
0.985635
2.76689
2.02014
2.2759
1.01333
1.62778
0.433258
1.19708
0.784069
1.869
1.90099
1.37921
1.05367
1.32012
0.436125
0.975045
1.28669
1.15407
2.09326
2.03387
1.56929
1.48665
1.44202
1.99239
1.29176
0.437121
1.97668
1.01836
2.23607
0.429882
1.86859
1.84364
1.64462
0.00251203
1.16202
0.923599
0.579826
1.54911
1.05667
0.856284
1.19245
1.05354
0.910089
1.80003
2.14323
1.26722
1.9402
1.37374
0.973764
1.4622
0.843474
0.317081
1.4338
1.22763
0.771354
2.4885
1.26689
1.31921
1.12264
0.38293
1.23558
1.9456
0.910562
0.722976
1.98935
0.889237
1.9574
1.65588
0.964378
1.14399
1.5352
0.770239
0.0981042
0.962361
1.52678
1.31229
1.87881
1.02882
1.15715
0.605659
1.83702
1.20123
0.965494
1.1859
0.508801
1.65454
1.49849
2.4045
1.58479
1.11447
1.41424
1.49447
1.27827
1.20417
1.51456
0.838432
1.71739
0.641964
0.930194
1.74456
0.701978
0.569096
0.639341
2.3307
1.72486
1.31349
1.28662
0.0984714
0.932003
1.16628
1.46673
0.827375
1.95024
1.39702
1.11087
2.07402
0.735964
0.661582
1.89873
1.47877
0.816228
2.18648
0.842024
1.29304
1.65805
1.22144
0.590628
1.06052
1.67888
1.74266
0.840772
1.29325
1.94767
0.530313
0.562657
1.29606
2.41634
1.36974
1.52541
1.52937
1.20705
0.8126
1.11781
1.09443
0.935827
2.49398
0.26318
1.19192
1.98711
1.41571
1.60804
1.12622
1.48614
1.25127
1.68208
1.77285
0.304049
2.18049
0.940103
1.03317
2.53604
1.94548
1.10166
1.21526
1.40356
1.40617
1.06714
0.0367418
1.1754
1.77899
0.788669
1.3069
2.25482
1.18746
0.185366
2.84305
0.407279
0.961519
2.17391
0.811254
1.4048
0.801441
1.51653
1.5194
0.576905
1.01624
0.768553
1.37004
1.23202
0.838732
1.82584
1.17825
0.957573
1.27412
0.984363
0.984542
1.09961
0.810917
2.01148
1.47769
1.12204
0.971152
1.7581
3.29901
3.36223
0

SCALARS edge_force float
LOOKUP_TABLE default
0.5
0.5
0.5
0.5
0.5
0.5
0.5
0.5
0.5
0.5
0.5
0.5
0.5
0.5
0.5
0.5
0.5
0.5
0.5
0.5
0.5
0.5
0.5
0.5
0.5
0.5
0.5
0.5
0.5
0.5
0.5
0.5
0.5
0.5
0.5
0.5
0.5
0.5
0.5
0.5
0.5
0.5
0.5
0.5
0.5
0.5
0.5
0.5
0.5
0.5
0.5
0.5
0.5
0.5
0.5
0.5
0.5
0.5
0.5
0.5
0.5
0.5
0.5
0.5
0.5
0.5
0.5
0.5
0.5
0.5
0.5
0.5
0.5
0.5
0.5
0.5
0.5
0.5
0.5
0.5
0.5
0.5
0.5
0.5
0.5
0.5
0.5
0.5
0.5
0.5
0.5
0.5
0.5
0.5
0.5
0.5
0.5
0.5
0.5
0.5
0.5
0.5
0.5
0.5
0.5
0.5
0.5
0.5
0.5
0.5
0.5
0.5
0.5
0.5
0.5
0.5
0.5
0.5
0.5
0.5
0.5
0.5
0.5
0.5
0.5
0.5
0.5
0.5
0.5
0.5
0.5
0.5
0.5
2
0.5
2
0.5
2
0.5
0.5
2
0.5
2
0.5
2
0.5
0.5
2
0.5
2
0.5
2
0.5
0.5
2
0.5
2
0.5
2
0.5
0.5
2
0.5
2
0.5
2
0.5
0.5
2
0.5
2
0.5
2
0.5
2
2
2
2
2
2
2
0.5
0.5
2
0.5
0.5
0.5
0.5
0.5
0.5
0.5
0.5
0.5
0.5
0.5
0.5
0.5
0.5
0.5
0.5
0.5
0.5
0.5
0.5
0.5
0.5
0.5
0.5
0.5
0.5
0.5
0.5
0.5
0.5
0.5
0.5
0.5
0.5
0.5
0.5
0.5
0.5
0.5
0.5
0.5
0.5
0.5
0.5
0.5
0.5
0.5
0.5
0.5
0.5
0.5
2
0.5
0.5
2
0.5
0.5
0.5
0.5
0.5
0.5
0.5
0.5
0.5
0.5
0.5
0.5
0.5
0.5
2
0.5
0.5
0.5
0.5
2
0.5
0.5
0.5
0.5
0.5
0.5
0.5
0.5
0.5
2
0.5
2
0.5
0.5
0.5
2
0.5
0.5
0.5
0.5
0.5
2
0.5
2
0.5
0.5
2
0.5
0.5
0.5
0.5
0.5
2
0.5
0.5
0.5
0.5
0.5
0.5
0.5
0.5
0.5
0.5
0.5
0.5
0.5
0.5
2
0.5
0.5
0.5
0.5
0.5
0.5
0.5
0.5
0.5
0.5
0.5
0.5
0.5
0.5
0.5
0.5
0.5
0.5
2
0.5
0.5
2
0.5
2
0.5
0.5
2
0.5
0.5
0.5
0.5
0.5
0.5
0.5
0.5
0.5
0.5
0.5
0.5
0.5
0.5
0.5
0.5
0.5
2
0.5
0.5
0.5
0.5
0.5
0.5
0.5
0.5
0.5
0.5
0.5
2
0.5
0.5
0.5
0.5
0.5
0.5
0.5
0.5
0.5
2
0.5
0.5
0.5
0.5
0.5
0.5
0.5
0.5
2
0.5
0.5
0.5
0.5
0.5
0.5
0.5
2
0.5
0.5
0.5
2
0.5
0.5
0.5
0.5
0.5
0.5
0.5
0.5
0.5
0.5
0.5
0.5
0.5
2
0.5
0.5
0.5
0.5
0.5
0.5
0.5
0.5
2
0.5
0.5
0.5
0.5
0.5
0.5
0.5
0.5
0.5
0.5
0.5
0.5
2
0.5
0.5
0.5
0.5
0.5
0.5
0.5
2
0.5
0.5
0.5
0.5
0.5
0.5
0.5
0.5
0.5
0.5
0.5
0.5
2
0.5
0.5
0.5
0.5
0.5
0.5
0.5
0.5
0.5
0.5
0.5
0.5
0.5
0.5
0.5
0.5
0.5
0.5
0.5
0.5
0.5
0.5
2
0.5
0.5
2
0.5
0.5
0.5
0.5
0.5
2
0.5
0.5
0.5
0.5
0.5
0.5
0.5
0.5
0.5
0.5
0.5
0.5
0.5
0.5
0.5
0.5
0.5
0.5
0.5
0.5
0.5
0.5
0.5
2
0.5
0.5
0.5
0.5
0.5
0.5
0.5
0.5
0.5
0.5
0.5
2
0.5
0.5
2
0.5
0.5
0.5
0.5
0.5
0.5
0.5
0.5
0.5
0.5
0.5
0.5
2
0.5
2
0.5
0.5
0.5
0.5
0.5
0.5
0.5
0.5
0.5
0.5
0.5
0.5
0.5
0.5
0.5
0.5
0.5
0.5
0.5
0.5
0.5
0.5
0.5
0.5
2
0.5
0.5
0.5
0.5
0
0
0
