# vtk DataFile Version 3.0
2D-vertex
ASCII
DATASET UNSTRUCTURED_GRID

POINTS 668 float
0.150136 -3.17602 0
2.60038 -3.05464 0
3.02292 -2.1187 0
2.03421 -1.01391 0
-0.225833 -0.790035 0
-0.993485 -2.25669 0
3.55024 -2.10365 0
4.15397 -1.27117 0
3.27679 0.278448 0
2.2186 0.00167133 0
1.08846 1.29967 0
-0.585771 1.83416 0
-1.39174 0.58467 0
-1.55024 0.550753 0
-2.11965 -1.10217 0
-1.63732 -2.00453 0
4.72093 -1.45 0
5.56283 -0.601658 0
3.7856 1.00337 0
3.51031 0.946016 0
2.66912 1.93682 0
1.59724 1.888 0
1.07532 5.50924 0
0.191587 5.51185 0
-0.676178 3.67516 0
-1.92406 2.81239 0
-1.897 0.910732 0
-3.19809 0.657469 0
-3.7405 -0.361394 0
-3.45941 -1.08151 0
6.63136 -0.630251 0
7.2781 0.0673828 0
7.15163 1.38691 0
4.97777 2.64093 0
5.4681 3.2028 0
3.16965 4.61455 0
2.46131 5.9094 0
1.55838 6.10015 0
0.700859 9.23395 0
-0.919247 9.32025 0
-0.660202 6.35022 0
-2.21405 5.4613 0
-3.29357 3.95998 0
-4.25883 4.01832 0
-5.0273 2.63245 0
-6.44614 2.35735 0
-6.75879 1.29739 0
-5.27995 -0.089289 0
7.59577 1.99324 0
7.29204 3.04902 0
6.55733 3.49806 0
5.90797 5.57815 0
3.59635 6.85051 0
3.55483 7.69096 0
2.1432 9.31542 0
2.70207 10.0078 0
-1.89228 10.6734 0
-1.82643 9.83454 0
-3.07213 8.56418 0
-2.78861 6.44335 0
-4.43874 6.7997 0
-5.8384 5.51981 0
-7.7906 4.07496 0
-7.65752 3.54033 0
8.22883 3.42425 0
8.22888 3.42675 0
6.83148 5.52172 0
7.30962 6.70488 0
6.10762 8.01493 0
6.34504 8.68232 0
5.63505 9.70266 0
5.42282 10.1496 0
-2.63105 12.9516 0
-2.85902 12.6862 0
-6.14976 9.96993 0
-5.47917 9.14956 0
-6.21061 7.82249 0
-6.12466 7.64532 0
-8.77058 4.59724 0
-8.62628 4.24432 0
9.77675 3.67087 0
10.1314 4.60963 0
9.36898 5.6258 0
10.5583 6.00292 0
10.3244 7.53489 0
10.5477 8.2441 0
9.96983 12.9504 0
11.0303 15.078 0
-9.79774 15.1625 0
-9.7814 15.103 0
-10.1418 9.20634 0
-9.84749 8.67447 0
-10.1913 8.05049 0
-9.45773 6.94297 0
-10.2784 5.70045 0
-9.83045 4.71767 0
3.47049 -4.9375 0
4.68543 -4.42011 0
5.52765 -4.03749 0
7.91523 -2.50572 0
9.24357 -1.10517 0
10.6369 1.1905 0
10.7303 1.34994 0
11.4605 2.39613 0
12.3075 4.29743 0
12.5421 5.07038 0
12.8487 8.58115 0
13.5973 15.4224 0
-13.2773 15.6543 0
-12.737 9.18012 0
-12.6583 7.90297 0
-12.3018 5.36405 0
-11.4456 3.419 0
-10.5987 2.31507 0
-10.0058 1.59174 0
-9.12397 0.267812 0
-7.22984 -1.89076 0
-5.18495 -3.3195 0
-3.10937 -4.34723 0
-0.128419 -5.22144 0
12.7614 10.1461 0
8.76788 10.4024 0
-13.0036 11.6891 0
-10.1527 12.4692 0
-0.43634 3.33658 0
0.871545 3.40479 0
-1.93312 5.4196 0
-1.22865 3.67994 0
4.44437 4.77911 0
4.87436 5.68991 0
0.417542 10.789 0
0.180786 9.74633 0
-1.16156 7.68852 0
-2.37709 7.41723 0
5.9071 5.58048 0
5.14519 7.56178 0
4.181 8.09084 0
4.21857 9.39778 0
2.24475 10.9742 0
2.24266 10.9729 0
-2.45935 10.953 0
-4.02316 9.30602 0
-3.58528 8.5933 0
-4.55282 7.38223 0
1.19142 0.655427 0
-0.281238 -0.306316 0
6.33337 1.65666 0
5.20042 0.147863 0
4.97579 2.64245 0
2.97338 3.5053 0
-9.01829 10.8069 0
-5.95759 10.6364 0
2.97088 3.50539 0
1.54834 4.21965 0
-9.46557 6.88641 0
-8.05636 6.26047 0
-1.02391 -2.27141 0
-1.49501 -4.95269 0
11.0315 34.477 0
12.5594 35.5891 0
0.967285 -2.85183 0
1.10989 -1.39744 0
2.53378 8.10611 0
1.33019 7.09754 0
8.57272 9.91872 0
5.63555 9.70513 0
9.72106 20.7627 0
0.175013 12.6269 0
-2.90976 -1.34739 0
-3.67087 -4.09745 0
-4.47491 1.70239 0
-5.39128 0.535402 0
-5.81856 -2.93159 0
-4.70174 -0.492634 0
0.390694 7.60212 0
-0.553525 7.18245 0
9.3334 5.48453 0
7.71147 4.74373 0
5.36374 -1.12901 0
7.03509 -3.17128 0
1.42002 -5.32491 0
1.50162 -3.29627 0
-6.3389 0.67304 0
-7.96906 -1.18806 0
-5.45872 4.41804 0
-6.80087 3.20022 0
7.41949 1.5104 0
9.83867 -0.241745 0
-12.5396 6.74849 0
-9.47808 6.91018 0
12.902 7.09972 0
10.7984 7.00241 0
-2.88843 3.01569 0
-3.82494 1.67899 0
-9.59636 1.02353 0
-6.79739 2.63086 0
-3.62972 6.26742 0
-4.41989 4.31781 0
-6.88399 6.43071 0
-6.47367 5.62199 0
8.30502 6.84154 0
8.53463 7.32836 0
-0.800113 12.4972 0
-0.635265 11.5096 0
12.766 10.155 0
10.2035 11.5226 0
10.1635 13.8696 0
2.00583 11.4425 0
7.98392 8.58513 0
9.26467 9.28303 0
-7.36828 7.9407 0
-7.70305 8.70782 0
-2.25752 14.7509 0
0.902833 13.8737 0
-10.0755 12.9819 0
-4.13983 12.5779 0
9.26351 9.28526 0
12.7635 9.63783 0
-10.8479 14.1924 0
-13.3459 14.6445 0
-12.7844 10.1714 0
-9.27238 10.3909 0
13.1756 18.1977 0
10.5315 16.6841 0
8.45603 10.8504 0
6.33899 11.0743 0
-9.2724 10.3884 0
-7.38003 9.65395 0
2.46816 14.3726 0
4.21917 12.7674 0
-4.47575 11.0666 0
-3.6851 10.3488 0
4.9739 12.5117 0
4.0228 11.0188 0
13.1732 11.8488 0
10.4358 12.0777 0
-2.88914 14.3583 0
-4.62799 13.5372 0
-11.7694 28.7635 0
0.127928 15.3918 0
-6.56883 11.2249 0
-4.51983 12.8481 0
-12.8588 10.888 0
-9.48905 11.4406 0
6.36004 16.457 0
8.39603 14.713 0
-1.01688 14.192 0
-0.605488 12.7054 0
-10.578 18.5011 0
-13.533 17.9036 0
7.69679 37.6895 0
2.42235 15.3827 0
-3.06812 16.8392 0
-10.4688 18.8965 0
-10.8122 13.4781 0
-13.2244 12.7456 0
-6.689 14.9711 0
-6.16013 13.8158 0
-6.4408 11.903 0
-7.29852 12.8837 0
13.4724 13.591 0
10.9553 14.4013 0
-11.1872 20.2453 0
-13.8662 20.7393 0
6.14197 12.1438 0
4.97524 12.5096 0
10.4201 15.7548 0
8.47343 15.3589 0
4.06636 13.8273 0
6.87959 15.9498 0
-2.04848 16.022 0
-0.402478 16.3271 0
14.385 22.0034 0
11.849 22.509 0
0.387962 15.338 0
1.41947 16.0727 0
12.2886 24.4845 0
4.1786 15.9475 0
13.3057 12.7097 0
10.2855 13.3266 0
-8.53179 14.5418 0
-8.59017 13.673 0
-9.38855 11.7556 0
-7.31063 12.5254 0
-10.1592 18.0208 0
-6.33437 16.615 0
4.83417 39.1258 0
4.82594 41.0144 0
1.83172 13.7376 0
2.57572 12.2263 0
-3.94976 15.9688 0
-3.92137 14.9393 0
-13.385 16.9774 0
-10.4023 17.4041 0
0.011514 17.7198 0
-0.187307 17.6006 0
7.8629 13.0753 0
7.46901 13.9477 0
8.72056 11.3823 0
7.70556 12.7652 0
-11.2319 19.5549 0
-13.7215 18.9242 0
-2.58571 16.8069 0
-1.61126 18.1291 0
1.71449 17.0829 0
3.55298 17.0536 0
6.4439 14.1149 0
6.21759 14.6147 0
-7.61016 18.0723 0
-7.40204 18.4049 0
-9.29166 15.8046 0
-6.55397 15.9165 0
4.1491 15.8829 0
4.8392 14.7141 0
-10.5372 22.1129 0
-3.83867 18.1911 0
14.7239 23.3707 0
12.6472 23.7139 0
-14.3528 28.9217 0
-12.4621 28.278 0
8.88076 17.2124 0
7.87826 16.0822 0
13.2166 19.1091 0
9.93405 19.9602 0
4.42129 18.2842 0
6.3295 19.046 0
1.5381 19.4511 0
3.78104 18.7262 0
-0.541326 25.1949 0
-3.15851 24.0487 0
-2.9523 22.3508 0
-4.48306 20.0272 0
-6.32486 15.5761 0
-4.11341 14.8423 0
-9.818 20.8285 0
-8.35644 19.5405 0
8.05011 23.7018 0
7.69076 20.8522 0
-13.2834 16.0949 0
-9.66705 16.4112 0
-9.64817 16.4539 0
-7.41892 17.3251 0
0.0516403 19.6459 0
0.27253 19.3658 0
11.152 33.5428 0
2.46217 22.5973 0
14.9443 30.8975 0
13.2243 30.3195 0
-14.4787 23.3516 0
-11.9773 23.3715 0
-5.4644 16.9146 0
-5.23341 17.9479 0
8.4618 17.9041 0
7.24263 17.8143 0
1.57835 17.3022 0
2.17051 18.3626 0
10.6982 16.2678 0
13.5278 16.415 0
13.1052 18.5195 0
8.89102 17.5024 0
-11.3885 24.1798 0
-4.4555 20.1905 0
-1.99868 19.0309 0
-3.49386 18.9843 0
4.01476 23.0864 0
4.68847 22.4541 0
-5.88236 18.6136 0
-5.67894 19.5779 0
4.42912 17.9012 0
6.39187 16.948 0
-1.6544 22.0893 0
-0.0128566 23.3432 0
1.8979 28.5887 0
9.91528 32.4906 0
-6.05236 37.5357 0
-7.08286 39.2792 0
-1.19041 38.4959 0
-2.08273 24.8648 0
-14.0905 21.5151 0
-11.7872 22.6509 0
-1.63518 19.5836 0
-3.4417 20.7254 0
-7.40888 21.4534 0
-5.83009 21.4941 0
12.4843 28.4953 0
10.3358 30.9235 0
5.42599 20.946 0
7.12478 21.4494 0
11.8052 22.6015 0
8.97737 22.7714 0
13.7042 20.3165 0
11.5359 21.8729 0
-12.2901 27.0699 0
-3.55601 21.8688 0
15.2035 28.701 0
13.2597 28.9973 0
2.68342 20.5484 0
3.91626 19.7732 0
-14.7255 25.3962 0
-12.576 25.8434 0
-1.27644 27.0278 0
4.28567 24.201 0
0.534423 20.8799 0
2.2259 21.3448 0
-8.34402 19.6045 0
-6.99905 20.3524 0
9.02397 18.9913 0
7.42661 19.7138 0
-1.24938 21.2955 0
-1.9599 20.2904 0
13.1034 18.5295 0
9.04451 18.9358 0
-2.20602 24.4711 0
-1.06457 23.1705 0
-5.68386 21.9623 0
-4.61238 22.401 0
-4.08064 24.4099 0
-4.75276 23.7803 0
-13.8697 20.7487 0
-10.5348 21.7968 0
5.6936 24.431 0
6.43367 23.4128 0
0.113295 30.0962 0
1.69653 38.7713 0
-8.08066 22.5459 0
-7.59013 23.5241 0
0.767155 39.0741 0
0.50502 41.2161 0
-8.46991 29.1983 0
-6.274 30.5459 0
10.2032 21.4082 0
8.89941 22.3514 0
14.9743 24.7414 0
12.7106 25.0726 0
6.24179 22.8577 0
7.22703 21.8264 0
2.70068 20.9877 0
4.53247 21.7322 0
3.58975 24.7826 0
4.79061 28.4926 0
5.30311 20.3222 0
6.40171 19.3476 0
2.00293 23.0134 0
2.23469 24.2206 0
13.4016 19.6658 0
10.2034 21.1311 0
-3.31224 34.7717 0
-2.53878 32.6311 0
-11.5898 30.949 0
-13.3328 31.7512 0
0.140679 21.365 0
0.611033 22.6458 0
-6.94279 23.5654 0
-6.52556 24.2009 0
-9.74129 21.2398 0
-7.40885 21.4509 0
8.82125 26.3298 0
10.0845 24.7779 0
-14.6898 27.3998 0
-12.5658 26.8598 0
-6.81207 25.0711 0
-6.48921 26.635 0
2.86427 33.2099 0
7.03043 32.1072 0
-10.0586 33.0398 0
-7.75082 30.318 0
8.52119 26.8134 0
5.56648 27.4029 0
2.46791 28.0922 0
1.67214 26.1293 0
-4.01924 26.211 0
-3.88276 26.2674 0
6.19987 38.8599 0
7.02318 40.4115 0
0.290194 24.3645 0
1.54218 24.7808 0
-8.96302 24.7149 0
-8.99253 25.2588 0
3.22972 35.187 0
2.0411 37.4481 0
-2.65757 25.789 0
-1.88477 26.9917 0
12.7776 30.6292 0
11.1015 30.0167 0
-3.56645 38.8404 0
-3.75061 40.7636 0
-5.24581 37.5327 0
-3.8219 34.7929 0
10.414 24.3711 0
10.1699 23.235 0
-9.47525 27.6279 0
-8.39962 25.6637 0
12.444 27.6446 0
10.4092 26.4007 0
-1.33337 35.1783 0
0.578292 32.1597 0
-9.68842 22.7784 0
-9.97551 23.9525 0
14.3052 32.6398 0
12.8409 31.9038 0
15.1565 25.984 0
12.9388 26.4238 0
9.57295 36.0442 0
8.07721 34.8558 0
-0.686052 30.205 0
-0.701295 28.0943 0
-7.84735 35.6283 0
-9.53518 36.9727 0
3.59641 25.7861 0
2.32359 26.4759 0
6.55057 30.8157 0
6.92357 27.5054 0
6.1409 25.1024 0
4.97186 25.9304 0
-4.40199 29.642 0
-3.35645 30.4416 0
8.39506 24.576 0
8.11452 24.9863 0
5.00167 30.3259 0
4.43281 33.1811 0
-11.1793 31.2487 0
-9.24748 29.3012 0
9.3642 37.4708 0
10.196 38.3673 0
-7.56624 28.1085 0
-4.45605 28.8574 0
-6.8788 36.1278 0
-5.91167 34.1457 0
2.19709 32.805 0
1.59397 33.0556 0
-13.8995 30.3345 0
-11.8329 29.5053 0
-12.4382 33.4247 0
-11.204 32.618 0
-0.480818 36.1984 0
-0.0673069 36.1495 0
0.927038 28.4384 0
[...]
CELL_DATA 1002
SCALARS current_Length float
LOOKUP_TABLE default
0.879108
1.02689
1.4826
1.46734
1.6554
1.46733
0.527535
1.02836
1.78066
1.09379
1.03218
1.21758
1.75748
1.48688
0.486881
0.162088
1.74825
1.02318
0.0338012
0.594487
0.563684
0.832541
0.281197
0.707233
1.29972
1.073
0.777803
1.05927
0.883736
2.03137
0.414918
0.552489
1.90185
0.499829
1.3255
1.15425
0.773035
0.827291
1.06891
0.951301
1.32558
0.861577
2.02556
0.00249757
1.28529
1.59734
1.47593
0.922858
0.76323
1.02316
0.730079
0.839032
1.19516
1.57683
1.84914
0.985562
0.967028
1.58467
1.19852
1.44526
1.10511
0.634532
0.704999
0.514013
1.0986
0.861072
1.12854
2.17909
1.72636
1.47445
0.841476
1.10222
1.44464
0.88977
1.06888
0.841412
1.04282
1.7792
1.05726
1.13778
0.859308
1.89662
0.340048
0.64343
0.550941
0.569365
1.00915
0.0024998
1.41497
0.00248873
1.27612
1.77793
0.742955
0.70836
1.24306
1.63458
0.00251681
1.64788
0.349885
0.632247
1.28537
1.05957
0.513979
1.5153
0.196917
0.593599
1.43244
0.381284
0.852662
1.567
1.00353
1.18419
1.00473
1.24765
1.02793
1.64177
0.743536
0.937262
1.30171
0.491043
0.859883
0.0616317
1.23892
0.888208
0.607866
2.14469
0.712411
1.3284
2.31544
0.038594
1.08007
1.06669
2.07419
1.32052
2.57966
0.925062
2.71034
1.10345
2.27282
2.28865
1.63965
3.14527
0.184817
3.24966
1.27579
2.11186
2.19833
0.807777
2.1921
2.061
2.32552
0.508274
2.58997
3.51417
1.07936
2.59539
1.27957
2.4714
1.16056
2.0511
2.07251
1.39138
2.75906
0.935297
3.05143
0.700338
2.57956
2.65469
1.75358
2.82596
0.614552
2.7668
1.39277
2.06429
1.5519
1.93029
2.08142
0.937929
2.12514
1.01991
0.0100736
0.545856
4.00169
0.814046
1.04549
2.95569
1.50983
1.68146
1.30966
0.284008
1.11186
1.87689
1.87957
1.03963
1.0072
1.27579
1.17967
1.06925
1.64962
1.34111
1.24543
0.926249
1.06378
2.12275
1.0998
1.44892
1.30748
0.52572
1.83435
0.00250183
1.77871
1.46439
1.36654
0.836482
1.59371
1.5501
0.65242
1.42375
1.75888
1.67524
1.65336
1.88681
0.745892
1.12649
2.18041
0.48741
0.693663
2.48488
0.00249838
1.3736
1.59178
1.4378
1.8101
1.54197
0.668957
1.72416
2.72235
0.911322
1.81715
1.88977
0.695011
1.00074
1.46136
1.27082
1.06642
1.5703
0.521576
0.492766
2.94494
0.606929
0.784432
2.03227
0.610577
1.70225
2.85345
1.08174
0.957563
1.48378
0.742924
0.970153
2.6825
1.66104
0.791087
1.03328
0.145683
1.17459
1.7831
0.718496
1.73859
2.63899
2.08675
1.12502
2.03028
0.752411
1.85833
2.47409
1.16535
0.921696
1.81231
0.294949
1.04864
2.98705
1.40473
0.0268528
3.06582
1.4824
0.712855
2.10589
1.02753
0.65039
1.63211
0.891213
0.445183
3.22765
0.968418
1.04366
2.10365
1.18466
2.03166
0.906857
1.61556
1.80166
0.538255
1.88647
1.50977
1.00128
1.74202
0.601733
2.90462
0.953711
2.18053
1.95841
1.37213
1.65095
1.45856
1.16369
1.2702
0.836987
1.43021
1.44367
0.265549
0.518512
1.54821
0.697565
0.00251392
1.06011
3.51768
1.40239
1.01216
2.5385
0.992402
0.00252186
3.51886
0.32941
1.73318
3.04666
0.594036
1.08743
2.12885
1.46735
0.999757
2.0299
0.899033
1.73022
1.68865
1.54301
1.09625
1.06784
0.796856
1.77861
1.7691
0.871061
0.98932
2.74704
0.743669
1.55726
1.18449
0.637223
1.65831
1.29158
0.84848
0.466276
0.690007
0.720467
0.789457
3.41471
2.24014
2.17506
0.650431
1.3607
0.284962
1.54253
0.410194
1.03788
3.01484
1.17555
1.01117
1.62154
0.483492
1.00786
1.48337
0.715208
1.90274
2.52097
1.89215
1.51373
1.27059
2.14089
1.47133
0.358503
1.83573
0.680863
2.64434
0.845944
1.52588
2.72419
1.68255
0.00250991
1.22275
0.448496
0.726057
1.98648
1.07091
0.936747
1.38197
1.28816
1.07524
1.67404
1.40875
0.102366
2.5859
1.55213
1.21734
1.26646
0.723882
0.0710791
1.87804
0.896864
0.556542
3.08256
1.36987
1.63825
0.870713
0.330687
1.0696
2.21592
0.662945
0.732244
2.54953
1.39134
2.27844
1.88861
0.938808
0.969068
1.68447
0.920094
0.215113
1.02987
0.888386
1.21304
3.01309
1.27464
1.32399
0.231796
2.11063
1.20213
0.957193
1.48952
0.347771
1.71538
0.691899
1.82082
2.56821
0.951135
1.51886
1.64253
1.0524
1.27071
1.83873
1.03865
1.49023
0.548676
0.771368
1.55605
0.39231
0.817558
0.410319
2.73998
1.79773
1.17628
1.35727
0.316156
1.53394
0.864903
1.39338
0.849884
2.10492
1.55881
1.22021
1.9973
0.290183
1.0074
1.51075
0.586633
0.830301
3.39112
0.383079
1.21422
2.05467
1.26844
0.778027
1.25891
2.01059
0.990352
1.57636
1.71039
1.07856
1.14628
0.706092
1.4029
2.33
1.48821
2.20832
1.91593
1.64209
1.08835
1.75286
0.440612
0.713399
3.63017
0.0467192
1.2963
2.39342
0.981471
1.66659
0.356713
0.942025
1.17515
1.62375
1.85584
0.543554
1.81456
1.87705
0.745246
2.50143
1.78568
1.41579
1.0588
1.18486
1.53325
1.22247
0.258068
1.65108
1.21453
0.583553
0.995002
2.83344
0.0101336
0.587863
4.33522
1.00009
0.16553
1.43117
0.661516
1.43747
1.49591
1.62779
0.738513
0.923946
0.929662
1.27751
0.985589
1.21906
0.492052
2.18196
1.39179
0.935732
1.06581
0.806713
0.569194
0.429103
0.774368
2.16776
2.02524
1.34058
0.412549
1.14616
0.797551
1.36083
2.56814
1.68797
0.772509
0.777883
0.0025107
1.89448
1.57931
0.923712
1.62253
1.68476
0.635768
0.822826
1.77181
1.39518
1.31363
1.75369
1.81907
0.70903
2.66915
0.346593
1.14912
1.38644
2.21176
1.32273
1.96623
1.58611
1.05565
1.45629
1.11898
1.26442
2.19549
1.42622
1.14712
1.35481
1.32509
0.594093
1.75419
0.0652442
1.53052
1.53892
1.32932
1.16866
1.75315
0.891149
1.54432
1.23082
0.590574
0.0591782
4.0792
1.04194
1.23164
1.73049
0.490463
1.18285
1.15783
0.784339
0.838708
0.920945
0.0100532
0.969471
3.49569
1.42658
0.587334
1.25875
0.982411
1.49971
1.35435
1.28252
0.648655
1.0943
0.977468
1.42067
2.15797
1.41574
0.795398
1.23001
1.41137
0.427148
1.60916
1.25583
0.858072
2.28788
1.60489
0.390543
1.42628
0.439632
1.19018
1.97734
0.906909
0.779473
1.00356
1.49157
0.310122
1.46862
0.61968
1.46696
1.22929
0.717606
0.277093
3.51793
0.510102
1.38875
1.84212
0.922872
1.27092
1.91881
0.624749
1.43961
1.3645
2.03836
1.82199
0.760186
0.418352
1.17247
2.34198
0.806758
0.939747
1.35208
2.00389
1.01644
2.19162
0.916163
1.77655
0.677573
0.444608
1.37773
0.588164
1.22064
1.33075
1.68483
0.413759
1.33776
1.18278
0.755879
1.49365
0.737894
0.875422
1.31526
0.147662
0.753804
1.70507
1.75651
1.06532
0.890681
1.31936
1.81736
1.69455
0.544706
0.957446
1.3673
0.111738
1.08839
0.609401
1.42952
1.27616
1.04384
1.78448
1.04046
1.29227
1.93195
0.806561
1.25007
1.14259
0.5235
1.27945
1.16201
0.517778
0.717967
1.24859
0.85163
1.58949
1.71943
1.37792
1.28118
1.48885
1.62447
1.26747
1.20866
1.79107
0.93428
1.63886
1.92129
0.939353
2.26082
1.6817
1.01828
1.21646
1.22663
1.21173
1.12032
1.18036
2.00729
2.15784
0.400108
1.62281
1.44769
1.27327
1.36095
1.02314
1.97703
1.58803
0.14161
0.786393
0.545857
1.3163
1.70145
1.518
0.497068
1.62448
1.85447
0.405344
0.508249
0.393808
1.52468
1.44181
2.03842
1.22303
1.34606
1.10864
1.5133
1.08977
0.631954
1.09264
0.780396
0.863354
0.65309
1.48373
0.744514
2.22675
1.89754
1.36947
1.47447
1.32942
1.80129
0.416386
1.84671
1.35208
0.520703
0.964929
1.01247
1.15456
0.572534
1.02747
1.43793
0.802241
1.26778
0.872379
0.943314
1.89732
1.75133
0.776391
0.811467
1.44754
1.5915
1.14838
1.95096
1.81526
0.872549
1.43738
0.772054
0.475818
1.7389
0.365179
1.28538
1.62097
0.683304
1.55798
1.45819
2.23251
1.96666
0.964432
0.662905
0.623924
1.24665
1.10854
1.34732
1.00052
0.940536
0.60027
2.89037
1.24675
1.17882
0.792019
1.12353
2.05255
2.06404
0.796817
0.515601
2.40522
1.17626
2.11141
1.67333
1.76971
2.09951
0.946096
1.91323
1.63503
0.790623
0.535705
1.25117
1.38531
0.464517
1.40002
2.07089
1.1087
1.87233
1.26223
1.87533
0.658505
1.9066
1.09819
0.44227
1.42593
0.892197
1.19976
1.11018
0.636202
1.0009
1.05513
1.43997
0.463972
1.32747
1.63981
0.832955
1.84321
1.38507
0.969859
1.28536
1.0526
1.10625
1.95547
1.13642
0.720466
1.50901
1.36667
0.586197
2.13826
1.06621
0.96503
2.2381
0.663083
1.12306
1.90921
0.812652
1.32011
2.00315
0.949819
1.61444
1.83411
1.10823
1.13457
1.77864
1.03308
1.25713
1.4679
0.891996
0.193837
2.06527
1.25568
0.785174
1.20755
0.827307
1.10219
1.29501
1.43306
1.41268
1.48776
1.49213
0.716639
1.12122
0.744777
0.475095
2.17607
1.40771
1.50346
1.31553
0.697774
0.700198
1.31698
0.730957
0.672293
1.77335
1.56051
0.64487
1.12037
1.40501
0.614721
1.71865
1.08945
0.886043
1.74881
1.49717
0.999458
1.85255
1.44225
0.504176
2.3498
1.52301
0.825434
1.66455
0.671117
0.55868
1.36438
1.43424
0.827956
1.56853
1.8191
0.0258881
1.07144
1.20917
1.43889
1.55469
1.68265
0.978411
0.584464
0.403723
1.04088
1.93674
1.3505
0.866426
2.14362
0.401747
2.08013
1.87077
1.39759
0.656978
2.28925
1.77838
0.841815
1.61223
0.831167
1.09982
1.63329

SCALARS edge_force float
LOOKUP_TABLE default
0.5
0.5
0.5
0.5
0.5
0.5
0.5
0.5
0.5
0.5
0.5
0.5
0.5
0.5
0.5
0.5
0.5
0.5
0.5
0.5
0.5
0.5
0.5
0.5
0.5
0.5
0.5
0.5
0.5
0.5
0.5
0.5
0.5
0.5
0.5
0.5
0.5
0.5
0.5
0.5
0.5
0.5
0.5
0.5
0.5
0.5
0.5
0.5
0.5
0.5
0.5
0.5
0.5
0.5
0.5
0.5
0.5
0.5
0.5
0.5
0.5
0.5
0.5
0.5
0.5
0.5
0.5
0.5
0.5
0.5
0.5
0.5
0.5
0.5
0.5
0.5
0.5
0.5
0.5
0.5
0.5
0.5
0.5
0.5
0.5
0.5
0.5
0.5
0.5
0.5
0.5
0.5
0.5
0.5
0.5
0.5
0.5
0.5
0.5
0.5
0.5
0.5
0.5
0.5
0.5
0.5
0.5
0.5
0.5
0.5
0.5
0.5
0.5
0.5
0.5
0.5
0.5
0.5
0.5
0.5
0.5
0.5
0.5
0.5
0.5
0.5
0.5
0.5
0.5
0.5
0.5
0.5
0.5
2
0.5
2
0.5
2
0.5
0.5
2
0.5
2
0.5
2
0.5
0.5
2
0.5
2
0.5
2
0.5
0.5
2
0.5
2
0.5
2
0.5
0.5
2
0.5
2
0.5
2
0.5
0.5
2
0.5
2
0.5
2
0.5
2
2
2
2
2
2
2
0.5
0.5
2
0.5
0.5
0.5
0.5
0.5
0.5
0.5
0.5
0.5
0.5
0.5
0.5
0.5
0.5
0.5
0.5
0.5
0.5
0.5
0.5
0.5
0.5
0.5
0.5
0.5
0.5
0.5
0.5
0.5
0.5
0.5
0.5
0.5
0.5
0.5
0.5
0.5
0.5
0.5
0.5
0.5
0.5
0.5
0.5
0.5
0.5
0.5
0.5
0.5
0.5
0.5
2
0.5
0.5
2
0.5
0.5
0.5
0.5
0.5
0.5
0.5
0.5
0.5
0.5
0.5
0.5
0.5
0.5
2
0.5
0.5
0.5
0.5
2
0.5
0.5
0.5
0.5
0.5
0.5
0.5
0.5
0.5
2
0.5
2
0.5
0.5
0.5
2
0.5
0.5
0.5
0.5
0.5
2
0.5
2
0.5
0.5
2
0.5
0.5
0.5
0.5
0.5
2
0.5
0.5
0.5
0.5
0.5
0.5
0.5
0.5
0.5
0.5
0.5
0.5
0.5
0.5
2
0.5
0.5
0.5
0.5
0.5
0.5
0.5
0.5
0.5
0.5
0.5
0.5
0.5
0.5
0.5
0.5
0.5
0.5
2
0.5
0.5
2
0.5
2
0.5
0.5
2
0.5
0.5
0.5
0.5
0.5
0.5
0.5
0.5
0.5
0.5
0.5
0.5
0.5
0.5
0.5
0.5
0.5
2
0.5
0.5
0.5
0.5
0.5
0.5
0.5
0.5
0.5
0.5
0.5
2
0.5
0.5
0.5
0.5
0.5
0.5
0.5
0.5
0.5
2
0.5
0.5
0.5
0.5
0.5
0.5
0.5
0.5
2
0.5
0.5
0.5
0.5
0.5
0.5
0.5
2
0.5
0.5
0.5
2
0.5
0.5
0.5
0.5
0.5
0.5
0.5
0.5
0.5
0.5
0.5
0.5
0.5
2
0.5
0.5
0.5
0.5
0.5
0.5
0.5
0.5
2
0.5
0.5
0.5
0.5
0.5
0.5
0.5
0.5
0.5
0.5
0.5
0.5
2
0.5
0.5
0.5
0.5
0.5
0.5
0.5
2
0.5
0.5
0.5
0.5
0.5
0.5
0.5
0.5
0.5
0.5
0.5
0.5
2
0.5
0.5
0.5
0.5
0.5
0.5
0.5
0.5
0.5
0.5
0.5
0.5
0.5
0.5
0.5
0.5
0.5
0.5
0.5
0.5
0.5
0.5
2
0.5
0.5
2
0.5
0.5
0.5
0.5
0.5
2
0.5
0.5
0.5
0.5
0.5
0.5
0.5
0.5
0.5
0.5
0.5
0.5
0.5
0.5
0.5
0.5
0.5
0.5
0.5
0.5
0.5
0.5
0.5
2
0.5
0.5
0.5
0.5
0.5
0.5
0.5
0.5
0.5
0.5
0.5
2
0.5
0.5
2
0.5
0.5
0.5
0.5
0.5
0.5
0.5
0.5
0.5
0.5
0.5
0.5
2
0.5
2
0.5
0.5
0.5
0.5
0.5
0.5
0.5
0.5
0.5
0.5
0.5
0.5
0.5
0.5
0.5
0.5
0.5
0.5
0.5
0.5
0.5
0.5
0.5
0.5
2
0.5
0.5
0.5
0.5
2
0.5
0.5
0.5
0.5
0.5
0.5
0.5
0.5
0.5
0.5
0.5
0.5
0.5
0.5
0.5
0.5
0.5
2
0.5
0.5
0.5
0.5
0.5
2
0.5
0.5
0.5
0.5
0.5
2
0.5
0.5
0.5
0.5
0.5
0.5
0.5
0.5
0.5
0.5
0.5
0.5
0.5
0.5
0.5
0.5
0.5
2
0.5
0.5
0.5
0.5
0.5
0.5
0.5
0.5
0.5
0.5
0.5
2
0.5
0.5
0.5
0.5
0.5
0.5
0.5
0.5
0.5
0.5
0.5
0.5
2
0.5
0.5
0.5
0.5
0.5
0.5
0.5
2
0.5
0.5
0.5
0.5
0.5
0.5
0.5
0.5
0.5
0.5
0.5
0.5
0.5
0.5
0.5
0.5
0.5
2
0.5
0.5
0.5
0.5
0.5
0.5
2
0.5
0.5
0.5
0.5
0.5
0.5
0.5
0.5
0.5
0.5
0.5
0.5
0.5
2
0.5
0.5
0.5
0.5
0.5
0.5
0.5
0.5
0.5
0.5
0.5
0.5
0.5
0.5
0.5
0.5
0.5
0.5
0.5
0.5
0.5
2
0.5
0.5
0.5
0.5
0.5
0.5
0.5
0.5
0.5
0.5
0.5
0.5
0.5
0.5
0.5
0.5
0.5
2
0.5
0.5
0.5
0.5
0.5
0.5
0.5
0.5
0.5
0.5
0.5
0.5
0.5
0.5
0.5
0.5
0.5
0.5
0.5
2
0.5
0.5
2
0.5
0.5
0.5
0.5
0.5
0.5
0.5
0.5
0.5
2
0.5
0.5
0.5
0.5
0.5
0.5
0.5
0.5
0.5
0.5
0.5
0.5
0.5
0.5
0.5
0.5
0.5
0.5
0.5
0.5
0.5
0.5
0.5
2
0.5
0.5
0.5
0.5
0.5
0.5
0.5
0.5
0.5
0.5
2
0.5
0.5
2
0.5
0.5
0.5
0.5
0.5
0.5
0.5
0.5
0.5
0.5
0.5
0.5
0.5
0.5
0.5
0.5
0.5
0.5
0.5
0.5
0.5
0.5
0.5
2
0.5
0.5
0.5
0.5
0.5
0.5
0.5
0.5
0.5
0.5
0.5
0.5
0.5
0.5
0.5
0.5
0.5
0.5
0.5
0.5
0.5
0.5
0.5
2
0.5
0.5
0.5
0.5
0.5
0.5
2
0.5
2
0.5
0.5
0.5
0.5
0.5
0.5
0.5
0.5
0.5
0.5
0.5
0.5
0.5
0.5
0.5
0.5
0.5
0.5
0.5
0.5
2
0.5
0.5
0.5
0.5
0.5
0.5
0.5
0.5
0.5
0.5
0.5
0.5
0.5
0.5
2
0.5
0.5
0.5
0.5
0.5
0.5
0.5
0.5
0.5
0.5
0.5
2
0.5
0.5
0.5
0.5
0.5
0.5
0.5
0.5
0.5
0.5
0.5
0.5
2
0.5
0.5
0.5
0.5
0.5
0.5
0.5
0.5
0.5
0.5
0.5
0.5
0.5
0.5
0.5
0.5
0.5
0.5
0.5
0.5
0.5
0.5
0.5
0.5
0.5
0.5
0.5
0.5
0.5
0.5
0.5
0.5
0.5
0.5
0.5
0.5
0.5
0.5
0.5
0.5
0.5
0.5
0.5
2
0.5
0.5
2
0.5
0.5
0.5
0.5
0.5
0.5
0.5
0.5
0.5
0.5
0.5
0.5
0.5
0.5
0.5
0.5
0.5
0.5
0.5
0.5
0.5
0.5
0.5
0.5
2
0.5
0.5
2
0.5
2
0.5
0.5
0.5
0.5
0.5
0.5
0.5
0.5
