# vtk DataFile Version 2.0
2D-vertex
ASCII
DATASET UNSTRUCTURED_GRID
POINTS 1034 float
0.608901 -4.26492 0
3.05785 -4.03912 0
3.43949 -3.08765 0
2.40558 -2.02722 0
0.137105 -1.89745 0
-0.570926 -3.39105 0
3.96797 -3.04959 0
4.53486 -2.19051 0
3.59028 -0.682732 0
2.54653 -1.00503 0
1.36284 0.246044 0
-0.328618 0.709626 0
-1.08338 -0.570499 0
-1.23827 -0.609903 0
-1.74468 -2.28227 0
-1.229 -3.16336 0
5.10697 -2.34267 0
5.91174 -1.45458 0
4.06335 0.0666086 0
3.79451 -0.0022985 0
2.90916 0.950118 0
1.84509 0.854485 0
1.16306 4.48094 0
0.313604 4.45017 0
-0.495426 2.56508 0
-1.6961 1.64294 0
-1.59859 -0.262854 0
-2.88747 -0.56252 0
-3.39294 -1.59879 0
-3.0865 -2.30763 0
6.97955 -1.43283 0
7.59468 -0.702013 0
7.40457 0.608454 0
5.17763 1.75902 0
5.64012 2.34317 0
3.28237 3.65863 0
2.50515 4.94275 0
1.62161 5.0925 0
0.677228 8.28321 0
-0.905758 8.31661 0
-0.566628 5.25509 0
-2.05538 4.30132 0
-3.09726 2.74384 0
-4.05229 2.77071 0
-4.78083 1.35342 0
-6.18721 1.03547 0
-6.46655 -0.031157 0
-4.94194 -1.37557 0
7.8203 1.24102 0
7.46617 2.2774 0
6.70902 2.69026 0
5.94619 4.74718 0
3.58704 5.91844 0
3.50711 6.79554 0
2.04711 8.41117 0
2.5764 9.12025 0
-1.87991 9.69219 0
-1.77427 8.76746 0
-3.0079 7.41454 0
-2.6623 5.25992 0
-4.29286 5.55441 0
-5.66782 4.22537 0
-7.57482 2.71829 0
-7.42773 2.18452 0
8.37596 2.6991 0
8.3759 2.7016 0
6.85891 4.73631 0
7.27709 5.94386 0
5.98669 7.2052 0
6.1873 7.89151 0
5.37366 8.90597 0
5.08938 9.42633 0
-2.61048 11.9933 0
-2.86996 11.6451 0
-6.0197 8.68556 0
-5.3447 7.90808 0
-6.05987 6.52135 0
-5.97621 6.35913 0
-8.56224 3.21996 0
-8.40901 2.86722 0
9.90226 3.03219 0
10.2038 3.99271 0
9.38475 4.96315 0
10.5433 5.40754 0
10.2093 6.92796 0
10.3839 7.64045 0
9.49222 12.2619 0
10.4718 14.3468 0
-9.60798 13.6753 0
-9.60773 13.6728 0
-9.98894 7.80207 0
-9.69331 7.28603 0
-10.0319 6.64743 0
-9.28291 5.56013 0
-10.0888 4.29587 0
-9.62 3.31806 0
4.00486 -5.8797 0
5.20019 -5.30822 0
6.02993 -4.88546 0
8.34893 -3.24071 0
9.60964 -1.77576 0
10.8883 0.592321 0
10.9786 0.766855 0
11.6533 1.85773 0
12.3896 3.8065 0
12.5792 4.59979 0
12.6614 8.12671 0
13.0644 14.8166 0
-13.2128 14.0926 0
-12.588 7.74177 0
-12.4941 6.46426 0
-12.0997 3.92339 0
-11.2065 1.9914 0
-10.3333 0.901023 0
-9.71853 0.185523 0
-8.79136 -1.12825 0
-6.82598 -3.23473 0
-4.72587 -4.59972 0
-2.60524 -5.55548 0
0.413781 -6.3138 0
12.485 9.5993 0
8.38215 9.71953 0
-12.8772 10.1986 0
-9.97515 11.0582 0
-0.237906 2.22816 0
1.05256 2.34661 0
-1.80516 4.27365 0
-1.02527 2.54959 0
4.534 3.8804 0
4.92123 4.8089 0
0.356324 9.89419 0
0.145951 8.7716 0
-1.09326 6.60557 0
-2.26953 6.29619 0
5.94517 4.74945 0
5.07098 6.71439 0
4.08613 7.20026 0
4.07424 8.57238 0
2.03377 10.1512 0
2.0318 10.1496 0
-2.36108 9.905 0
-3.91596 8.10637 0
-3.46506 7.42327 0
-4.4242 6.14147 0
1.49334 -0.395741 0
0.0621643 -1.41689 0
6.57678 0.83775 0
5.51482 -0.722068 0
5.17559 1.76046 0
3.1401 2.53666 0
-8.86365 9.45286 0
-5.83995 9.3859 0
3.1376 2.53669 0
1.6973 3.18972 0
-9.29692 5.4983 0
-7.88245 4.90335 0
-0.601717 -3.40745 0
-0.967113 -6.09865 0
15.2012 30.4971 0
17.8511 30.333 0
1.41456 -3.90649 0
1.49667 -2.44985 0
2.50268 7.16097 0
1.34535 6.12209 0
8.21342 9.24169 0
5.37381 8.90849 0
8.62112 20.0087 0
-0.128973 11.8531 0
-2.52332 -2.55546 0
-3.18353 -5.32362 0
-4.19782 0.440475 0
-5.07404 -0.754277 0
-5.37947 -4.22986 0
-4.34674 -1.76217 0
0.415743 6.57936 0
-0.486537 6.13699 0
9.35746 4.82055 0
7.78611 3.99606 0
5.73703 -1.99088 0
7.49731 -3.95004 0
1.96996 -6.35388 0
1.96642 -4.3278 0
-6.02418 -0.646914 0
-7.59203 -2.55098 0
-5.25429 3.13077 0
-6.56619 1.86887 0
7.66632 0.745308 0
10.1639 -0.879148 0
-12.3602 5.31168 0
-9.30788 5.51834 0
12.8114 6.64988 0
10.7214 6.4209 0
-2.65862 1.81013 0
-3.55096 0.438856 0
-9.28907 -0.379442 0
-6.54652 1.29875 0
-3.48579 5.05726 0
-4.22106 3.0627 0
-6.71911 5.10128 0
-6.29033 4.30787 0
8.24114 6.12958 0
8.43686 6.61415 0
-0.926427 11.687 0
-0.680468 10.5536 0
12.4894 9.60837 0
9.80122 10.86 0
9.64444 13.1401 0
1.70894 10.7313 0
7.80266 7.87838 0
8.99829 8.60435 0
-7.20248 6.60942 0
-7.5486 7.35806 0
-2.38375 13.9914 0
0.595301 13.175 0
-9.91388 11.5532 0
-4.07982 11.4711 0
8.99689 8.60644 0
12.5124 9.15053 0
-10.7083 12.6951 0
-13.2632 13.1147 0
-12.646 8.71951 0
-9.12609 9.00787 0
12.4904 17.556 0
9.87966 15.8273 0
8.04937 10.1587 0
5.91677 10.3164 0
-9.12614 9.00535 0
-7.2422 8.33275 0
2.0338 13.7114 0
3.79445 12.0729 0
-4.36368 9.87114 0
-3.59537 9.22772 0
4.50807 11.8254 0
3.62515 10.2687 0
12.8087 11.294 0
9.9988 11.3978 0
-2.99394 13.5607 0
-4.5241 12.4341 0
-13.7127 25.843 0
-0.139544 14.7942 0
-6.43149 9.92519 0
-4.38738 11.6777 0
-12.7283 9.43363 0
-9.31949 10.043 0
5.55758 15.9119 0
7.77051 13.9652 0
-1.29432 13.553 0
-0.759891 11.8893 0
-10.3463 16.9409 0
-13.5362 15.9168 0
17.4151 36.457 0
1.94744 14.8146 0
-3.08457 16.2437 0
-10.2901 17.3362 0
-10.6614 12.0278 0
-13.111 11.2275 0
-6.53586 13.7193 0
-5.96873 12.6282 0
-6.31027 10.6796 0
-7.11812 11.603 0
13.0231 12.9876 0
10.4275 13.7082 0
-11.194 18.4344 0
-14.1651 18.3511 0
5.69361 11.4218 0
4.51645 11.7948 0
9.81699 15.0153 0
7.82021 14.5341 0
3.60786 13.2315 0
6.21498 15.2673 0
-2.20939 15.4761 0
-0.723617 15.7994 0
13.8711 19.7872 0
11.157 20.9616 0
-0.0131581 14.7694 0
0.909026 15.4786 0
11.9336 22.6842 0
3.54797 15.3767 0
12.8975 12.124 0
9.77963 12.6303 0
-8.38033 13.1911 0
-8.39952 12.3213 0
-9.21775 10.3853 0
-7.11953 11.2241 0
-9.92522 16.5574 0
-6.15013 15.5377 0
17.6378 41.6035 0
19.2834 42.4972 0
1.43998 13.0758 0
2.25681 11.536 0
-3.98157 15.2043 0
-3.85998 13.9789 0
-13.3497 15.1613 0
-10.1165 15.8865 0
-0.472305 17.3553 0
-0.544936 17.3042 0
7.34368 12.3214 0
6.91011 13.2332 0
8.28163 10.6675 0
7.21429 12.0493 0
-11.1314 17.8601 0
-13.7858 16.7228 0
-2.78557 16.2448 0
-1.82593 17.6962 0
1.20304 16.6186 0
2.80415 16.6136 0
5.87652 13.3945 0
5.58692 14.0148 0
-7.42118 16.8551 0
-7.19836 17.3165 0
-9.04379 14.442 0
-6.35453 14.6897 0
3.53001 15.3322 0
4.31756 14.0868 0
-10.6135 20.3997 0
-3.95043 17.4965 0
14.4009 20.7892 0
12.0648 21.8552 0
-16.6513 24.9136 0
-14.2215 25.0537 0
7.95455 16.3255 0
7.11912 15.3634 0
12.4836 17.7288 0
8.72594 19.1581 0
3.55426 17.9233 0
5.3347 18.5626 0
0.854761 19.2954 0
2.94577 18.3742 0
-1.11587 25.2117 0
-3.76342 23.8443 0
-3.34692 22.1815 0
-4.5721 19.3961 0
-6.15917 14.426 0
-4.04931 13.8649 0
-9.79032 19.3197 0
-8.22973 18.2698 0
7.42551 23.1824 0
6.67796 20.3633 0
-13.2272 14.4368 0
-9.39091 14.9441 0
-9.34802 15.0579 0
-7.16003 16.0882 0
-0.462385 19.5236 0
-0.225089 19.2208 0
14.8085 29.7135 0
1.93493 22.7096 0
17.0366 26.3072 0
14.9333 26.7418 0
-15.1629 20.3075 0
-12.4173 21.053 0
-5.35882 15.9039 0
-5.19988 17.1638 0
7.42136 17.1723 0
6.27979 17.1616 0
0.963673 17.0051 0
1.564 18.0817 0
10.0445 15.4826 0
12.9458 15.7942 0
12.4679 17.6479 0
7.95601 16.6524 0
-12.0479 22.037 0
-4.55516 19.7441 0
-2.33352 18.7021 0
-3.5997 18.5553 0
3.43481 23.0779 0
4.01977 22.4184 0
-5.7996 17.6753 0
-5.69165 18.8185 0
3.56384 17.3757 0
5.5764 16.4598 0
-2.08197 22.0532 0
-0.483291 23.4182 0
2.04475 28.1395 0
12.4568 29.8535 0
-14.8226 43.7898 0
-16.122 44.3079 0
-8.03591 50.3268 0
-2.76306 24.7001 0
-14.345 18.6859 0
-12.1702 20.6301 0
-1.92958 19.4223 0
-3.62902 20.3961 0
-7.4808 20.4001 0
-5.98781 20.7387 0
13.1014 25.782 0
11.8743 28.8045 0
4.54713 20.7484 0
6.16785 21.056 0
11.127 21.0757 0
8.17264 22.0267 0
12.8629 18.3179 0
10.8807 20.6269 0
-13.7616 24.1901 0
-3.90499 21.608 0
16.2264 24.4459 0
14.4636 25.8607 0
1.97315 20.3534 0
3.14118 19.5806 0
-15.8489 21.8251 0
-13.7543 23.0907 0
-2.00812 26.7821 0
3.8523 24.2803 0
0.0709495 20.9142 0
1.61554 21.3172 0
-8.2227 18.3849 0
-6.92397 19.3475 0
7.75649 18.3282 0
6.26615 19.173 0
-1.61493 21.2753 0
-2.3129 20.1381 0
12.465 17.6582 0
7.88109 17.9432 0
-2.82451 24.3949 0
-1.5691 23.1816 0
-5.91508 21.3341 0
-4.94311 21.9514 0
-4.7532 24.0673 0
-5.32457 23.3066 0
-14.171 18.3593 0
-10.5343 20.0211 0
5.22864 24.3245 0
5.79894 23.1994 0
-0.306388 29.2853 0
7.02657 51.7939 0
-8.2936 21.3388 0
-8.00564 22.4338 0
3.09834 53.1435 0
2.9003 54.6874 0
-10.5359 27.521 0
-8.41992 29.7996 0
9.25421 20.444 0
8.04089 21.698 0
14.8999 21.7446 0
12.3982 23.0256 0
5.49673 22.622 0
6.33624 21.4596 0
2.0198 20.9836 0
3.75437 21.5617 0
3.27701 24.864 0
5.3469 28.3656 0
4.34846 20.0005 0
5.44022 18.9344 0
1.52162 23.1116 0
1.79782 24.3551 0
12.5851 17.9366 0
9.23044 20.3195 0
-6.88499 35.4137 0
-4.92834 31.3353 0
-14.2849 27.4331 0
-16.9293 27.0825 0
-0.328804 21.3933 0
0.142508 22.7556 0
-7.41207 22.6053 0
-7.11234 23.3778 0
-9.79124 19.6921 0
-7.48069 20.3976 0
8.78571 25.4876 0
9.67879 23.6699 0
-16.4512 23.6339 0
-14.0023 23.8416 0
-7.56533 24.1342 0
-7.60123 25.7061 0
4.92756 32.2826 0
8.93036 31.0933 0
-14.586 29.3936 0
-10.2572 28.498 0
8.65409 25.9862 0
5.79857 27.3079 0
2.40721 27.8123 0
1.27577 26.0636 0
-5.02746 25.8144 0
-4.91639 25.8824 0
18.0175 40.2808 0
19.8538 40.3621 0
-0.227959 24.4058 0
1.15782 24.8903 0
-9.62248 23.2607 0
-9.7727 23.6989 0
6.27428 37.1289 0
8.1426 45.4064 0
-3.46085 25.5513 0
-2.93016 26.6451 0
14.709 27.1941 0
12.4656 27.5745 0
-12.5179 46.554 0
-13.9336 47.8209 0
-13.9852 44.4201 0
-8.28321 34.7225 0
9.91865 23.1287 0
9.45655 22.206 0
-10.8616 25.684 0
-9.27478 24.3021 0
12.8235 25.2769 0
10.4092 25.0353 0
-1.92717 36.6581 0
-0.594983 30.7888 0
-9.92957 21.2339 0
-10.4422 22.2253 0
17.3888 27.7777 0
15.282 28.0527 0
15.3479 22.5499 0
13.0997 24.0743 0
16.7132 34.2289 0
13.3219 33.7708 0
-1.97328 29.2926 0
-1.61063 27.7028 0
-15.5296 34.9229 0
-17.4735 34.5417 0
3.37846 25.7706 0
2.22635 26.53 0
8.13211 30.0891 0
7.23472 27.059 0
5.83898 24.9501 0
4.90202 25.924 0
-6.39443 28.8824 0
-5.83971 29.4877 0
7.92634 23.911 0
7.74968 24.3858 0
6.2107 30.0583 0
6.62003 32.513 0
-14.2217 27.5918 0
-11.1687 27.3472 0
17.8547 35.9445 0
19.912 36.0024 0
-9.1171 26.67 0
-6.26157 28.2418 0
-13.9004 37.3338 0
-10.6989 33.5168 0
3.42931 31.5606 0
2.91614 31.8883 0
-16.7912 26.054 0
-13.9436 26.257 0
-17.1007 28.4703 0
-15 28.6384 0
-0.206222 40.2255 0
3.84839 43.8495 0
[...]
CELL_DATA 518
SCALARS cell_division_count float
LOOKUP_TABLE default
1
0
1
0
0
0
1
0
0
1
1
1
1
1
1
1
0
1
1
1
1
1
1
0
1
1
1
1
1
1
1
1
2
4
3
1
1
0
0
1
1
0
0
0
1
2
3
0
1
0
0
1
1
1
1
1
0
0
3
0
1
2
3
1
1
1
1
1
1
1
2
2
1
1
1
1
2
1
1
1
3
1
1
2
9
1
1
1
1
1
1
1
1
1
1
1
1
1
1
1
1
1
2
3
5
2
1
3
5
2
2
2
5
3
2
4
2
3
5
5
6
3
3
6
3
4
6
9
3
5
4
4
8
5
6
6
5
4
5
14
5
5
5
7
5
4
6
4
10
5
3
4
6
6
6
7
6
6
11
7
8
7
6
7
8
18
11
6
8
9
4
7
8
13
6
7
7
8
8
3
6
12
10
11
9
7
11
13
9
15
8
11
10
11
9
9
5
14
6
10
8
13
10
10
8
11
6
10
11
14
8
11
13
11
9
12
9
8
9
11
13
9
11
6
16
13
11
12
11
13
8
13
13
12
15
14
10
8
12
13
14
11
12
12
16
9
14
15
15
12
7
9
14
15
11
14
14
14
13
13
12
12
8
12
16
14
8
9
17
14
15
16
14
14
13
11
14
14
14
14
14
15
14
8
15
9
9
14
13
13
14
12
12
10
12
12
14
15
7
13
13
15
11
14
14
14
8
13
15
12
16
15
15
15
13
14
15
16
12
15
18
9
11
14
16
14
16
16
14
15
11
7
11
13
18
14
15
13
16
16
13
16
15
12
15
14
17
13
10
9
14
17
13
15
14
15
10
17
15
15
15
15
14
13
13
15
14
18
16
15
16
15
15
15
17
8
16
15
15
16
13
14
10
18
16
15
11
16
16
14
16
16
15
9
16
15
14
13
19
15
16
14
11
15
19
18
14
17
8
11
11
14
15
12
17
15
15
16
17
15
16
15
16
16
16
17
15
15
15
17
18
16
18
16
16
17
15
17
14
16
18
11
11
13
13
16
16
18
18
17
16
15
17
16
17
15
17
15
17
15
17
12
11
16
17
16
19
11
16
19
15
16
15
15
17
16
17
13
18
17
16
17
17
18
18
12
13
15
16
15
16
16
18
16
16
15
17
16
16
13
16
18
19
17
18
15
18
19
17
16
18
18
19
18
18
16
11
19
SCALARS cell_time float
LOOKUP_TABLE default
2431
2.22229e+13
2451
4.48239e+13
2.67348e+11
1.25633e+10
2461
2.68224e+09
9.19769e+11
2451
2451
2441
2411
2461
2381
2421
1.22844e+06
2461
2431
2461
2461
2361
2401
26243.4
2461
2461
2461
2461
2461
2351
2411
2351
2311
2051
2201
2301
2441
1.00108e+18
2.94533e+15
2411
2401
107543
3805.76
2517.34
2391
2291
2091
2508.01
2401
5159.01
2776.18
2381
2421
2431
2441
2411
1.12104e+13
23626.3
1881
4497.96
2411
2331
2151
2461
2461
2461
2461
2461
2461
2461
2341
2221
2461
2451
2451
2451
2281
2441
2441
2441
1581
2431
2431
2291
1211
2431
2421
2421
2411
2411
2411
2411
2411
2401
2401
2401
2391
2381
2381
2361
2351
2351
2341
2211
2031
2311
2301
2151
1931
2291
2291
2291
1581
1871
2281
1901
2221
2211
1941
1901
1791
2171
2151
1781
2151
1871
1881
1571
2091
1941
2071
2071
851
1881
1771
1801
2001
1781
1971
801
1941
1941
1931
1631
1061
1901
1671
1651
1301
1881
1871
1871
1871
1861
1801
1601
1791
1781
1141
1211
1131
1591
1181
1521
1591
121
1271
1671
1661
1211
1651
1631
1631
481
991
1461
1601
1321
1591
1581
1311
1001
1451
1211
1531
1521
1151
941
631
141
1271
1321
1441
1031
1211
1011
1411
801
1391
1391
791
811
1361
1331
1321
1321
1311
1301
1281
821
1271
1261
541
1251
471
701
1211
991
1211
1211
931
1211
1201
1181
361
361
1151
1151
1141
921
1131
681
671
641
641
841
1071
291
1051
1041
211
1041
661
91
221
1011
801
651
121
1001
691
781
361
681
201
681
681
681
751
921
741
741
371
701
321
421
851
851
141
841
271
101
821
621
811
131
811
801
801
151
801
321
801
791
661
601
781
661
661
751
301
741
731
721
701
701
321
551
691
691
681
681
291
681
681
681
491
671
401
661
121
251
661
401
661
481
651
371
641
641
21
631
631
461
131
621
1
211
451
121
201
591
351
581
51
561
551
541
351
81
531
301
521
511
331
511
151
491
491
331
491
171
481
281
481
221
311
131
291
461
121
311
451
181
91
71
421
11
281
401
131
401
271
401
71
371
371
371
371
361
361
361
361
31
241
91
351
351
71
341
81
91
331
331
321
321
321
111
51
91
121
311
131
311
31
81
301
151
291
1
291
291
291
141
31
281
151
281
151
271
271
271
31
131
261
101
181
251
251
101
11
241
101
81
221
51
221
221
211
211
101
201
201
61
181
81
71
51
21
161
161
51
151
61
151
151
151
141
141
141
141
141
131
131
131
131
1
131
131
21
121
121
121
121
121
121
111
111
111
111
101
101
101
101
101
91
91
91
91
91
81
81
81
81
81
71
71
71
71
61
61
51
51
51
51
51
31
31
31
31
21
21
21
11
11
1
1
1
SCALARS cell_area float
LOOKUP_TABLE default
3.24157
3.29965
3.29301
3.35562
3.35094
3.34322
3.32633
3.37402
3.3483
3.28129
3.33621
3.28176
3.38612
3.31882
3.30546
3.32945
3.39797
3.28848
3.34607
3.39738
3.39173
3.33904
3.33877
3.37135
3.3579
3.37556
3.43966
3.40197
3.39092
3.32893
3.24629
3.29631
3.35063
3.33647
3.4451
3.24913
3.34458
3.25228
3.26073
3.24822
3.23628
3.27737
3.26122
3.2778
3.21927
3.28349
3.25507
3.26232
3.25842
3.24754
3.26727
3.27288
3.2161
3.25679
3.24443
3.24186
3.20918
3.21643
3.26649
3.19547
3.24581
3.30554
3.26795
3.27991
3.33677
3.2843
3.39868
3.35142
3.27927
3.35629
3.45202
3.35139
3.3566
3.28638
3.24803
3.27424
3.34118
3.3509
3.23067
3.22174
3.21903
3.25823
3.33482
3.3307
3.37004
3.22226
3.29616
3.2519
3.36967
3.28687
3.22412
3.2034
3.21553
3.30335
3.25099
3.24389
3.25795
3.32359
3.26262
3.29977
3.28912
3.26264
3.40153
3.23122
3.29317
3.2394
3.32798
3.38514
3.29086
3.27818
3.25763
3.27116
3.27345
3.2927
3.24494
3.3162
3.35623
3.40485
3.254
3.42556
3.30237
3.34895
3.27068
3.34792
3.40641
3.26079
3.44239
3.39754
3.21511
3.2798
3.33465
3.20598
3.28657
3.37042
3.31483
3.35427
3.36637
3.26362
3.36571
3.30833
3.24848
3.28088
3.31515
3.27386
3.24154
3.34823
3.40057
3.26876
3.37477
3.31346
3.29978
3.23259
3.37316
3.3613
3.38421
3.38748
3.33871
3.30873
3.35608
3.27452
3.25967
3.41171
3.28758
3.32026
3.36954
3.34185
3.36905
3.32852
3.29951
3.3659
3.27063
3.32559
3.43241
3.29271
3.27779
3.23105
3.36185
3.36947
3.39185
3.23851
3.29788
3.31115
3.436
3.39007
3.39119
3.31751
3.38629
3.40107
3.30066
3.2627
3.27634
3.41123
3.40361
3.29013
3.35714
3.27161
3.23662
3.29243
3.24225
3.34356
3.26132
3.33765
3.42045
3.35367
3.30279
3.39166
3.2891
3.34822
3.38536
3.36686
3.30943
3.39354
3.3893
3.35508
3.26688
3.31694
3.34423
3.27812
3.37391
3.37145
3.44548
3.3527
3.40069
3.27961
3.37047
3.29555
3.39883
3.32931
3.30487
3.37029
3.2206
3.35863
3.42869
3.26541
3.34602
3.41052
3.42676
3.28688
3.38991
3.38564
3.29134
3.36976
3.2703
3.32477
3.26509
3.33853
3.38324
3.29816
3.29511
3.3177
3.29685
3.25147
3.32479
3.36974
3.30459
3.39035
3.31269
3.34859
3.40107
3.3392
3.33723
3.30796
3.24105
3.36245
3.36915
3.39403
3.27672
3.28573
3.36507
3.36499
3.35509
3.32521
3.3778
3.38436
3.37824
3.29907
3.3429
3.33997
3.35747
3.29773
3.26515
3.33569
3.3623
3.2646
3.37818
3.25935
3.30213
3.29335
3.3421
3.34392
3.3518
3.30937
3.35993
3.28972
3.38346
3.35375
3.36695
3.38847
3.31518
3.38382
3.33175
3.37436
3.34255
3.34526
3.34417
3.32499
3.26491
3.39268
3.3681
3.31004
3.32934
3.30958
3.31138
3.33344
3.38687
3.30034
3.39981
3.36996
3.35395
3.34632
3.31079
3.29225
3.29534
3.33702
3.3537
3.34583
3.35727
3.33056
3.37248
3.30288
3.32341
3.28616
3.26088
3.32667
3.34845
3.36545
3.34407
3.28513
3.36667
3.31643
3.31737
3.26898
3.28184
3.30325
3.30016
3.3384
3.3056
3.32628
3.24987
3.34454
3.40794
3.2847
3.32919
3.33244
3.30495
3.34975
3.30701
3.34108
3.32793
3.34135
3.28337
3.30366
3.35916
3.3196
3.29603
3.29731
3.32102
3.32991
3.35725
3.32609
3.34336
3.31629
3.38059
3.33974
3.31182
3.28233
3.36544
3.27325
3.36063
3.35149
3.31185
3.30373
3.31033
3.31108
3.31743
3.31342
3.28831
3.35135
3.36539
3.28681
3.3615
3.30152
3.30807
3.3194
3.28622
3.35524
3.30213
3.355
3.28943
3.31242
3.32707
3.31142
3.3274
3.36133
3.3119
3.30694
3.32939
3.2819
3.29532
3.31321
3.30967
3.33927
3.34279
3.30878
3.28454
3.29796
3.31913
3.31989
3.32583
3.33664
3.27518
3.34992
3.28991
3.39518
3.34786
3.32418
3.30655
3.33297
3.32968
3.33676
3.28745
3.33373
3.31578
3.33185
3.33357
3.27064
3.30743
3.32252
3.31172
3.31803
3.32481
3.30262
3.24448
3.3154
3.32562
3.26647
3.32125
3.32833
3.31449
3.35653
3.34617
3.27861
3.27121
3.29825
3.36182
3.30638
3.2961
3.30787
3.32574
3.33663
3.32496
3.2914
3.31221
3.34789
3.32414
3.39794
3.36898
3.34891
3.29997
3.33747
3.27764
3.35575
3.31539
3.35687
3.32709
3.32132
3.31167
3.31187
3.2787
3.3471
3.36038
3.28422
3.3644
3.2953
3.32996
3.35937
3.3098
3.34458
3.2731
3.26049
3.35323
3.33311
3.35655
3.26651
3.32788
3.35424
3.2984
3.34266
3.29098
3.31804
3.34447
3.27238
3.36345
3.31233
3.32048
3.30678
3.32421
3.34232
3.34606
3.3083
3.32435
3.28925
3.32299
3.2966
3.32571
3.35508
4.6471e-310
4.6471e-310
SCALARS cell_perimeter float
LOOKUP_TABLE default
6.92938
6.94362
6.96296
7.19967
7.12987
6.81956
7.08008
7.65767
6.93658
6.92656
7.39058
7.00363
6.79958
7.24671
7.04576
6.79531
7.17779
6.97029
6.9238
6.98388
6.94319
7.2749
7.24438
7.58675
7.60055
6.95783
7.98183
7.1377
6.90403
7.07173
6.94935
7.05368
8.18739
7.03433
7.09957
7.34389
7.90552
7.52273
7.83051
7.64216
8.27438
8.67177
8.19678
7.76963
7.38491
9.62692
8.043
7.66729
8.05765
7.66312
8.13594
8.45327
7.78747
8.07468
7.67469
7.21703
7.43914
7.39218
8.70928
7.32603
7.73157
9.72204
8.63911
7.03688
7.15422
7.24431
6.90278
7.08714
7.1858
6.86632
7.79796
7.07026
7.17187
7.07723
7.24042
7.21958
7.79304
7.27378
6.93638
7.8746
8.25089
6.79077
7.02147
7.8613
7.54971
7.98289
6.82368
7.98402
7.08414
6.99936
7.80071
7.31439
7.65615
7.13325
7.93623
7.97952
7.36997
6.94673
8.23311
7.19155
7.17304
6.94649
7.12148
8.06559
7.21579
7.03462
6.85477
7.41735
7.31748
8.61119
8.6719
8.59409
10.1616
7.2166
7.2434
7.06066
6.91748
7.41716
8.27405
7.06754
7.66931
7.28046
8.97563
7.19444
7.256
8.47225
7.16881
7.0787
7.72854
7.02739
7.28727
7.79823
7.96648
7.35058
7.30445
7.07821
7.04765
7.99597
6.92941
7.25283
8.22003
6.91321
7.57956
7.57797
7.29686
7.22748
7.25278
9.16971
7.11249
7.33095
7.3029
8.10979
7.07623
7.16735
6.82771
6.84679
8.02128
7.00222
7.57759
7.87226
7.58867
6.86024
9.90747
7.33423
7.08082
6.91977
6.98166
7.17877
7.43072
7.16378
9.40534
7.87352
7.11811
7.44353
7.32165
8.0681
7.00344
7.09317
7.08182
7.99318
10.8671
6.92595
7.02004
7.10382
6.89026
7.3584
6.9027
6.92874
7.17555
6.89652
9.24598
7.02175
7.41526
7.24912
6.92898
7.17119
8.21636
7.24579
7.43643
6.98029
8.27388
7.05995
7.24837
7.06975
7.0811
6.89736
10.3669
7.05951
6.96427
6.96759
9.8255
6.93543
6.99873
7.08635
7.39907
7.02147
7.60103
7.97411
7.04433
7.04869
7.01544
7.06183
7.05151
9.39329
7.31374
7.7528
7.09119
7.14103
7.41861
7.14507
7.60211
7.1842
7.12213
7.2518
7.21535
6.94658
7.03054
7.19259
6.93197
7.10724
6.82934
6.96483
7.47829
7.30655
6.96855
6.94956
6.83307
7.12721
6.9799
7.02419
7.57191
7.97265
6.8675
7.13069
7.22615
7.25368
7.16366
7.45964
6.94077
7.17719
7.39576
7.55062
7.33269
7.21105
7.15852
6.93589
7.85064
7.64823
6.80305
7.19808
6.99079
7.09263
6.96913
7.65244
6.9912
7.12189
7.02863
7.28415
7.35656
6.90892
7.3946
6.87409
6.99551
8.42945
6.82237
7.33308
8.13289
7.33548
7.13805
7.06561
6.96781
7.61936
7.31475
7.36953
7.17013
6.93047
7.05018
7.24045
7.81157
7.0593
7.15409
6.99022
8.19588
7.18081
7.11716
7.15279
7.6716
7.03598
6.97472
7.68377
7.02375
7.43569
7.01704
6.82339
7.20744
7.10384
7.02433
7.01912
6.86229
7.19985
6.9348
7.10919
7.42666
7.00756
6.86647
7.23782
6.97612
6.8545
6.86163
6.96184
7.20729
7.29379
7.32094
7.0141
7.30318
7.02848
7.63594
7.3514
6.9574
6.9913
7.10827
6.92992
7.22164
7.99031
6.97994
7.17651
6.87482
6.86789
7.35997
8.75461
7.43945
6.95547
7.4394
7.07703
7.18835
6.80289
7.10883
6.8039
6.92152
6.95224
7.01897
6.93177
6.77135
7.18364
7.17484
7.01999
7.12639
7.27724
7.32261
7.02232
6.86387
7.08764
6.80325
7.00888
6.94431
7.40968
7.85731
7.00308
7.27597
7.01359
8.22045
6.83196
7.10775
6.93766
6.91542
6.87839
7.17748
7.0257
7.00775
6.96872
6.91644
7.00513
6.83545
8.29626
6.99541
6.93757
7.13493
7.55517
7.00722
7.01883
6.96229
6.87491
7.17294
6.91319
6.82733
6.96264
6.90955
7.03791
7.29467
7.23259
7.89039
6.96369
7.00902
7.27208
7.02012
6.94318
6.92025
6.93894
7.05343
6.95124
6.96902
6.98486
6.97352
7.05658
7.056
7.08208
6.97848
7.44413
6.87526
6.83256
6.99104
7.11567
6.93839
7.11411
7.09777
6.91343
6.87304
7.15053
6.81283
6.9375
6.96238
7.19711
7.35841
7.41803
7.23963
7.02262
6.88164
7.08363
6.98501
6.82658
6.93312
6.93379
6.93309
6.95801
6.95169
6.89261
7.03253
6.99944
7.0683
7.20308
7.13098
7.19047
7.2237
7.00529
6.8827
7.04388
6.77107
7.25682
7.23895
6.94808
6.94257
6.94896
7.03306
7.08585
6.98221
6.96729
6.84523
7.28137
6.96424
7.16164
6.89908
7.01327
6.86135
7.14067
6.90687
7.41409
7.22667
6.91771
6.98508
6.93859
6.97232
7.02727
6.86508
7.29972
6.95591
7.15917
7.02044
6.88346
6.9511
7.45976
6.86461
7.39469
7.02158
6.84958
7.2623
6.94788
6.9048
6.7916
7.30378
6.85003
6.7928
6.92948
6.92076
7.16505
6.83729
3.32931
4.6471e-310
4.6471e-310
SCALARS cell_frequency_modifier float
LOOKUP_TABLE default
2.03207e+18
2.61725e+16
1.86808e+17
1.81386e+15
5.23312e+14
1.22149e+14
2.50813e+12
1.865e+13
8.22237e+14
4.23407e+16
2.22687e+13
1.5167e+15
6.07609e+10
1.53474e+12
2.73602e+14
4.50449e+14
7.89272e+12
4.95089e+13
4.78297e+10
7.95704e+08
5.83887e+10
7.92689e+11
8.08865e+12
6.73828e+11
4.65002e+10
3.53775e+09
5.09381e+08
1.28265e+09
2.47254e+10
1.71954e+11
1.60232e+14
1.25298e+12
2.19332e+09
3.0836e+08
1.80477e+07
4.09481e+12
6.60875e+10
1.02795e+19
3.52536e+18
6.62409e+17
1.21931e+16
2.79514e+15
1.11118e+15
5.22629e+13
1.23834e+13
2.13339e+11
2.57796e+10
2.28154e+12
1.05691e+13
8.02617e+14
1.98789e+15
5.34965e+15
9.34106e+17
4.89212e+18
10000
10000
2.69072e+17
3.18291e+14
2.10083e+08
2.43077e+14
2.41609e+17
2.39294e+09
7.43148e+10
3.84559e+15
2.93463e+12
1.63244e+14
6.10187e+08
7.54646e+09
1.09666e+13
5.09255e+09
1.07001e+08
2.79534e+08
1.10024e+10
3.24223e+16
1.1227e+16
4.91618e+14
1.47123e+09
6.95779e+11
8.11143e+13
1.57504e+19
1.96612e+08
2.44046e+18
1.31708e+10
1.01527e+09
14359.5
4.34736e+18
1.08908e+16
1.34327e+18
6.13565e+09
2.81306e+13
2.3903e+18
10000
9.97849e+16
1.26365e+13
3.80435e+16
3.55124e+13
2.37747e+12
2.43755e+13
1.75509e+16
5.67532e+12
1.33391e+14
8.53868e+12
1.07224e+08
4.03985e+10
1.35428e+09
1.5259e+12
1.14606e+10
9.73077e+06
2.21385e+10
5.47124e+11
2.61002e+09
5.29026e+11
1.10544e+08
3.50689e+10
9.34987e+11
6.65436e+07
1.43377e+09
7.86047e+07
1.2036e+10
1.77848e+06
3.22528e+06
2.65495e+08
1.97843e+11
2.9031e+06
1.52779e+07
9.63821e+07
580875
187391
8.614e+09
5.57763e+09
1.02952e+08
1.57278e+09
64442.6
2.99687e+07
5.17905e+06
1.63905e+07
2.85881e+06
3.61049e+06
4.9002e+06
11329.1
4.44165e+09
6.27271e+09
9.12452e+08
2.1077e+08
191.183
5.18434e+07
2.14921e+06
5.30016e+08
1105.64
6.01507e+07
1.07966e+09
4.4251e+07
507034
1.20467e+06
3.99263e+06
415384
9.53039e+06
2.5154e+07
21262.6
1.53247e+06
296772
518869
1.6155e+07
625002
119871
1.15315
3136.89
2.08617e+07
2.34273e+06
4504.31
1.11572e+09
4.51936e+06
75920.7
8202.14
47158.7
6.38959e+06
626367
121277
201562
5.33122e+08
8.8183e+06
46217.6
32420.7
4986.86
105624
1.91613e+06
3966.87
439.705
5.18198
103.12
9.95335e+06
15218.8
25134.7
62732.6
29583.3
1.35056e+06
7.78064e+06
474215
109927
81228
1.37739e+06
358.015
17941.7
135579
460391
8589.68
3.35653e+07
3383.96
11395.2
688.337
317136
1880.06
21.7675
10185.4
164.872
386.815
14290.1
731437
7103.37
16851.6
487.527
82897.9
1361.64
1.07132e+07
5.15742
1528.17
4670.53
8024.53
357648
1336.12
698092
1451.75
42.9621
21327.8
276.475
138.494
598.216
271.331
1360.02
1866.49
212.476
414.271
29725.4
1.42534
133.845
4535.78
816.619
9714.52
635.23
16449.4
4769.56
408030
7.19686
28.9217
5.75752
158.964
204.371
723.314
65.3584
1571.39
42.4127
986.757
1026.83
217.337
2.68207
8.61208
126062
32623.2
0.828351
91.0215
1.72165
0.903186
251.393
22.0485
473.918
8.70536
540.912
1361.46
3439.39
17.9062
197903
12.1861
139.577
2.54664e+06
39.4032
131.864
8120.62
10808.4
28.8859
347.468
14.3871
1891.35
69.2889
14686.1
67.9962
285.371
18.7603
14.185
144.363
31.3013
949.068
48.3407
2.4133
249.826
162.025
715.669
2902.88
55.8768
7.2062
286.373
1.44861
17.2631
168.842
52.7959
19.74
63.0557
103.221
5.9253
98.5833
117.004
1.77377
114.168
7419.58
7.42983
0.843372
52.1639
0.56832
1.07594
9.0615
10.3045
1.11939
619.909
124.942
12.4188
0.6923
22.4797
15.8639
8634.75
13.0512
2.23955
7.81947
222.819
5428.23
137.417
59.4077
27.4969
8.49409
11.2782
895.003
30.3912
6.35416
106.002
37.8838
10.2379
66.6891
1.9638
3.34516
1.844
9.32204
7.82387
131.451
20.882
7.03868
1.66573
101.532
19.6503
14.5758
0.747071
3.04565
24.9313
1.00065
166.52
1.48732
4.30706
3.91458
1697.45
13.1257
603.391
3.2988
8.71075
37.2637
30.7345
4.8256
1.92734
6.09685
1.58486
114.6
12.6236
0.399976
865.973
0.448174
15.1868
19.5048
43.218
963.782
16.3256
134.422
0.562273
100.015
1.54755
0.932286
8.58174
1.14758
2.80145
1.50375
3.75065
16.9212
325.56
400.313
1.40399
10.9331
2.31748
8.31213
2.58016
197.823
137.171
1.47312
7.48129
3.85774
4.38782
401.69
1.80905
149.621
0.711458
2.9496
1.05841
2.67822
5.413
2.5799
1.27015
100.751
2.18802
1.28638
0.936445
1.15476
109.887
7.74396
1.16761
3.94423
2.2979
1.0142
5.68943
109.882
1.31651
1.25127
102.383
1.10841
2.01155
1.36893
0.507065
0.786564
103.068
216.746
12.2528
1.7469
4.39924
910.529
2.31461
3.13215
0.931036
0.956588
150.897
1.49296
1.27472
2.79453
0.69275
0.377301
0.696933
8.9728
0.943748
458.578
1.15614
2.3977
0.487659
0.860667
1.13674
1.63473
1.9477
124.182
0.509436
0.470042
124.726
0.558712
113.054
0.726461
0.596326
1.85795
0.535956
479.34
114.249
1.25262
0.691926
0.554353
141.874
0.805192
0.52838
26.1179
0.676684
101.92
1.25099
0.569243
163.929
0.390903
1.93143
1.91322
2.54779
1.04722
0.605623
0.793816
2.58799
0.950645
101.256
1.18144
31.7265
0.880244
1
1
1
SCALARS cell_area_modifier float
LOOKUP_TABLE default
100
7.10345
100
0.435518
0.471396
0.555256
0.827309
0.348562
0.491647
100
0.658147
100
0.330658
1.1016
2.90141
0.738351
0.309774
100
0.513716
0.312595
0.318393
0.604106
0.60767
0.354561
0.412826
0.345059
0.289733
0.301611
0.321373
0.765799
100
41.2
0.475751
0.653968
0.288112
100
0.526854
100
100
100
100
100
100
100
100
100
100
100
100
100
100
100
100
100
100
100
100
100
100
100
100
2.82192
100
100
0.637771
100
0.308846
0.465011
100
0.428274
0.286509
0.46712
0.422998
100
100
100
0.583569
0.473563
100
100
100
100
0.666667
0.712803
0.359511
100
68.6667
100
0.364602
100
100
100
100
3.49153
100
100
100
0.967136
100
6.64516
100
100
0.302496
100
100
100
0.78327
0.333874
100
100
100
100
100
100
100
1.23353
0.430063
0.299854
100
0.293866
4.20408
0.482436
100
0.498789
0.298984
100
0.28892
0.311649
100
100
0.67101
100
100
0.357019
1.32903
0.444924
0.377982
100
0.380776
2.12371
100
100
1.3121
100
100
0.494005
0.306092
100
0.346218
1.36424
6.24242
100
0.350937
0.401559
0.336052
0.327504
0.611276
2.08081
0.431866
100
100
0.295552
100
1.04569
0.365897
0.577031
0.369838
0.771536
7.62963
0.379374
100
0.876596
0.291372
100
100
100
0.395393
0.367201
0.317411
100
13.7333
1.70248
0.29055
0.323391
0.320373
1.15084
0.3296
0.304284
5.02439
100
100
0.296403
0.30073
100
0.419552
100
100
100
100
0.549333
100
0.622356
0.294707
0.454746
3.88679
0.31938
100
0.496386
0.332795
0.375228
1.9619
0.315467
0.325434
0.441113
100
1.19075
0.537859
100
0.349745
0.353345
0.287308
0.458797
0.305185
100
0.355786
100
0.307922
0.754579
3.07463
0.358261
100
0.411178
0.292199
100
0.518892
0.297258
0.29303
100
0.324409
0.331723
100
0.362039
100
0.923767
100
0.614925
0.339374
10.8421
100
1.13812
22.8889
100
0.915556
0.363316
3.16923
0.322379
1.42069
0.486998
0.303387
0.600583
0.629969
2.26374
100
0.392381
0.368515
0.314504
100
100
0.386492
0.387947
0.439232
0.88412
0.343907
0.334959
0.341625
8.24
0.558266
0.590258
0.414487
15.8462
100
0.662379
0.393881
100
0.342762
100
4.38298
100
0.573816
0.546419
0.46085
2
0.406312
100
0.338259
0.450766
0.373866
0.326466
1.2956
0.337152
0.707904
0.347386
0.567493
0.524173
0.540682
0.891775
100
0.316436
0.372514
1.82301
0.749091
1.92523
1.6748
0.684385
0.328549
5.28205
0.307004
0.360771
0.448802
0.508642
1.76068
100
100
0.633846
0.452747
0.521519
0.416162
0.71777
0.352137
3.74545
0.976303
100
100
0.820717
0.489311
0.382189
0.543536
100
0.3766
1.20468
1.17714
100
100
3.61404
5.56757
0.618619
2.74667
0.834008
100
0.5323
0.298119
100
0.760148
0.698305
2.98551
0.480186
2.42353
0.586895
0.789272
0.580282
100
3.37705
0.409543
1.06736
100
18.7273
1.02488
0.727915
0.41785
0.840816
0.552279
1.21893
0.340496
0.59366
1.57252
100
0.383613
100
0.403131
0.462921
1.54887
3.26984
1.7913
1.73109
1.16384
1.38255
100
0.469248
0.385047
100
0.398453
4.7907
2.21505
1.07853
100
0.437367
4.57778
0.443011
100
1.44056
0.814229
1.648
0.801556
0.4
1.50365
2.48193
0.743682
100
100
1.40136
1.88991
0.597101
0.561308
2.0396
100
12.1176
1.08995
1.05641
0.847737
0.645768
100
0.477958
100
0.313546
0.503667
0.949309
2.60759
0.693603
0.733096
0.641745
100
0.67541
1.24848
0.703072
0.679868