# vtk DataFile Version 3.0
2D-vertex
ASCII
DATASET UNSTRUCTURED_GRID

POINTS 486 float
-0.00449388 -2.45981 0
2.46788 -2.38781 0
2.90809 -1.46835 0
1.94927 -0.347414 0
-0.332086 -0.0725593 0
-1.12927 -1.51086 0
3.44981 -1.46502 0
4.07142 -0.646334 0
3.24042 0.903551 0
2.15333 0.646821 0
1.04488 1.94375 0
-0.641923 2.5301 0
-1.47547 1.30562 0
-1.65808 1.2705 0
-2.24758 -0.336493 0
-1.78361 -1.24467 0
4.64206 -0.839424 0
5.52 -0.00736028 0
3.7905 1.60556 0
3.4857 1.55008 0
2.68274 2.54636 0
1.57536 2.52521 0
1.14802 6.04007 0
0.16262 6.05528 0
-0.690111 4.28106 0
-1.999 3.4995 0
-2.00848 1.64731 0
-3.33352 1.4139 0
-3.87792 0.433171 0
-3.60783 -0.289399 0
6.59657 -0.0616552 0
7.27295 0.63543 0
7.17007 1.95401 0
5.03406 3.21114 0
5.55089 3.76729 0
3.26697 5.16838 0
2.6165 6.40567 0
1.6406 6.62174 0
0.738088 9.5622 0
-0.961735 9.64959 0
-0.678015 6.9023 0
-2.34314 6.07917 0
-3.39272 4.67174 0
-4.40938 4.74968 0
-5.16516 3.43806 0
-6.60123 3.185 0
-6.91841 2.15459 0
-5.43364 0.735465 0
7.65296 2.57218 0
7.38136 3.60575 0
6.67981 4.04584 0
6.10714 6.10025 0
3.79194 7.36681 0
3.75816 8.11699 0
2.32236 9.644 0
2.89991 10.3527 0
-2.00059 10.9306 0
-1.96461 10.2516 0
-3.16985 9.09891 0
-2.89839 7.07977 0
-4.62418 7.50869 0
-5.99945 6.30092 0
-7.97188 4.94933 0
-7.84322 4.39526 0
8.35838 3.97593 0
8.35863 3.97842 0
7.06896 6.04214 0
7.55933 7.24696 0
6.43714 8.49642 0
6.69416 9.18114 0
6.08482 10.1213 0
5.9775 10.439 0
-2.79944 13.1927 0
-2.97454 13.0253 0
-6.43778 10.7604 0
-5.7506 9.83436 0
-6.46532 8.64145 0
-6.35448 8.3977 0
-8.95087 5.51711 0
-8.80083 5.13237 0
9.90897 4.19068 0
10.2972 5.14781 0
9.59607 6.19332 0
10.7787 6.53547 0
10.6237 8.08971 0
10.8945 8.8514 0
10.3991 13.7417 0
11.1757 16.2402 0
-9.86933 16.6286 0
-9.82963 16.3595 0
-10.4091 10.2564 0
-10.0849 9.6501 0
-10.422 9.05603 0
-9.67079 7.89483 0
-10.4437 6.66617 0
-9.99628 5.65198 0
3.29083 -4.2819 0
4.52273 -3.79197 0
5.38174 -3.42673 0
7.82181 -1.9471 0
9.19237 -0.573784 0
10.6529 1.68269 0
10.7562 1.84664 0
11.5336 2.89261 0
12.4413 4.7805 0
12.704 5.56097 0
13.1238 9.10747 0
13.4921 16.8138 0
-12.892 17.4119 0
-12.865 10.277 0
-12.8003 8.93898 0
-12.4488 6.35095 0
-11.6074 4.38849 0
-10.7688 3.26612 0
-10.1701 2.51661 0
-9.275 1.15202 0
-7.39123 -1.03295 0
-5.35606 -2.49164 0
-3.29277 -3.55265 0
-0.32558 -4.48553 0
13.0402 11.0004 0
9.38324 10.9406 0
-13.0411 13.1442 0
-10.4175 13.6188 0
-0.471642 3.96805 0
0.900705 4.01887 0
-1.96016 6.01244 0
-1.32442 4.29746 0
4.59913 5.3093 0
5.04183 6.21939 0
0.433299 10.9956 0
0.216445 10.0808 0
-1.21548 8.17259 0
-2.51268 7.9184 0
6.10649 6.10265 0
5.42025 8.03346 0
4.45808 8.56224 0
4.47942 9.74213 0
2.52771 11.1722 0
2.52558 11.1709 0
-2.72421 11.3271 0
-4.25437 9.93421 0
-3.81768 9.16281 0
-4.72817 8.08865 0
1.12871 1.32908 0
-0.375504 0.386317 0
6.35805 2.23092 0
5.18825 0.718329 0
5.03205 3.21262 0
3.03459 4.08114 0
-9.30454 11.7724 0
-6.2309 11.3583 0
3.0321 4.08104 0
1.57911 4.81504 0
-9.63292 7.81805 0
-8.21074 7.15404 0
-1.16644 -1.52777 0
-1.68997 -4.18772 0
3.61476 30.521 0
4.38099 32.2727 0
0.827783 -2.15079 0
1.00083 -0.715641 0
2.67224 8.55546 0
1.44121 7.51508 0
9.19004 10.4238 0
6.10725 10.1581 0
9.27514 22.3677 0
0.507117 12.6304 0
-3.05135 -0.569274 0
-3.85313 -3.29217 0
-4.62339 2.48642 0
-5.53755 1.35974 0
-5.99044 -2.09164 0
-4.84861 0.316176 0
0.44298 8.05661 0
-0.574643 7.62112 0
9.54609 6.01424 0
7.88454 5.30505 0
5.30732 -0.527672 0
6.91288 -2.59805 0
1.22714 -4.62326 0
1.35293 -2.60705 0
-6.49491 1.51119 0
-8.12934 -0.317122 0
-5.6465 5.19271 0
-6.97282 4.03418 0
7.45714 2.08008 0
9.81246 0.276234 0
-12.6805 7.72638 0
-9.67222 7.89275 0
13.1303 7.59215 0
11.0594 7.56377 0
-3.00841 3.73272 0
-3.94205 2.44887 0
-9.74722 1.91855 0
-6.97536 3.48316 0
-3.77457 6.92326 0
-4.57447 5.06787 0
-7.08037 7.2914 0
-6.66441 6.42478 0
8.59299 7.38117 0
8.86211 7.93123 0
-0.772171 12.5216 0
-0.67708 11.7697 0
13.0434 11.01 0
10.6613 12.2614 0
10.5104 14.8193 0
2.39178 11.4431 0
8.3523 9.08705 0
9.74203 9.89399 0
-7.65294 8.80437 0
-7.99134 9.64232 0
-2.26264 14.732 0
1.16512 13.7921 0
-10.2665 14.2129 0
-4.35445 13.038 0
9.74128 9.89638 0
13.0506 10.2887 0
-10.8654 15.6726 0
-13.0955 16.3204 0
-12.8852 11.3945 0
-9.54934 11.3987 0
12.7028 19.6651 0
10.4745 18.0884 0
9.03807 11.4006 0
6.95852 11.5142 0
-9.54913 11.3962 0
-7.65292 10.5151 0
2.86337 14.3479 0
4.71195 12.9312 0
-4.76267 11.6881 0
-3.92068 10.8232 0
5.52474 12.746 0
4.60799 11.2316 0
13.3955 12.8431 0
10.9046 12.9274 0
-2.91893 14.393 0
-4.9057 14.0491 0
-5.02934 29.047 0
0.266997 15.165 0
-6.88797 12.0641 0
-4.84474 13.4323 0
-12.9303 12.1774 0
-9.80207 12.5164 0
6.94403 16.7342 0
8.8416 15.3956 0
-0.828082 14.0092 0
-0.523184 12.7574 0
-10.1203 20.324 0
-12.5009 20.6291 0
2.59574 30.5241 0
2.78953 15.2587 0
-3.16465 16.7426 0
-9.80078 20.781 0
-10.9196 14.7719 0
-13.1802 14.3554 0
-6.92276 15.8069 0
-6.50471 14.5081 0
-6.74646 12.6236 0
-7.6316 13.7615 0
13.573 14.926 0
11.1809 15.3935 0
-9.76582 22.612 0
-11.5529 23.9808 0
6.69766 12.5061 0
5.52661 12.7443 0
10.5305 16.8042 0
8.84213 16.2331 0
4.51587 13.8577 0
7.31503 16.4483 0
-2.0328 15.7664 0
-0.248054 16.0519 0
10.7415 26.6979 0
9.17885 25.5968 0
0.68727 15.0862 0
1.79956 15.8975 0
7.29183 27.1972 0
4.68058 16.0407 0
13.4812 13.885 0
10.7147 14.1954 0
-8.67637 15.6286 0
-8.85732 14.6917 0
-9.68653 12.8146 0
-7.67397 13.3971 0
-9.83346 19.6535 0
-6.52447 17.2983 0
0.577169 31.3579 0
0.336773 32.982 0
2.21331 13.6634 0
2.95959 12.2489 0
-4.05421 16.0814 0
-4.13791 15.25 0
-12.6616 19.3497 0
-10.266 19.0821 0
0.247676 17.2783 0
-0.0333387 17.1264 0
8.3958 13.6927 0
7.95619 14.4607 0
9.31087 12.0352 0
8.23095 13.2853 0
-10.2586 21.6826 0
-12.2564 22.0208 0
-2.5461 16.6281 0
-1.53948 17.79 0
2.02982 16.798 0
4.0949 16.9181 0
6.978 14.5165 0
6.76454 14.8952 0
-7.51893 19.0746 0
-7.27034 19.3111 0
-9.4299 17.0551 0
-6.80212 16.7539 0
4.61718 15.8818 0
5.29761 14.8782 0
-8.39762 24.5933 0
-3.74959 18.256 0
9.86701 28.0209 0
8.32448 26.8268 0
-6.35072 30.9016 0
-5.35034 29.0526 0
9.25711 18.3406 0
8.27749 16.7488 0
12.0989 22.0717 0
9.89852 21.6667 0
4.92846 18.2278 0
6.78678 19.4034 0
1.82733 18.9217 0
4.23519 18.5669 0
-0.250646 24.9301 0
-2.38429 24.072 0
-2.62637 22.1691 0
-4.2431 20.1749 0
-6.56125 16.2644 0
-4.31445 15.1871 0
-8.79696 22.6194 0
-7.87532 20.7082 0
6.9429 24.9767 0
7.63165 21.6824 0
-12.7853 18.1592 0
-9.74384 17.8469 0
-9.70119 17.9091 0
-7.50324 18.2821 0
0.214507 19.0916 0
0.476267 18.7699 0
3.99601 29.863 0
2.45055 22.109 0
5.63079 31.82 0
5.24429 30.1776 0
-10.0064 27.4838 0
-8.29737 26.2297 0
-5.58086 17.4272 0
-5.22224 18.2555 0
9.01638 18.9696 0
7.78692 18.5469 0
1.97637 16.8717 0
2.48595 17.9621 0
10.7867 17.4784 0
13.2811 17.9156 0
12.467 20.2693 0
9.21048 18.8425 0
-7.63769 26.501 0
-4.16102 20.3933 0
-1.84502 18.7039 0
-3.37149 18.8485 0
3.78975 22.7351 0
4.55217 22.2744 0
-5.79062 19.1518 0
-5.37814 20.0138 0
4.96969 17.9621 0
6.92887 17.2835 0
-1.40455 21.6827 0
0.184395 22.8354 0
1.15295 27.7868 0
3.42595 28.2369 0
-2.4958 30.6718 0
-2.94615 32.3505 0
-1.45731 30.3382 0
-1.35266 24.8723 0
-10.8874 25.7293 0
-8.70642 25.2286 0
-1.53254 19.0977 0
-3.29554 20.6426 0
-6.48406 22.4448 0
-5.32295 22.183 0
6.8336 28.0538 0
4.9212 27.2913 0
5.55546 21.0192 0
7.00422 21.9889 0
8.54934 25.7742 0
7.57756 24.8119 0
11.5602 24.6956 0
9.66781 24.3829 0
-5.96546 28.235 0
-3.14789 21.9181 0
7.81285 30.4822 0
6.82741 29.448 0
2.87681 20.1274 0
4.21749 19.5102 0
-9.15049 28.6631 0
-7.62359 27.5516 0
0.314697 26.2354 0
3.87503 24.0227 0
0.664861 20.2411 0
2.31731 20.7779 0
-7.78816 20.8652 0
-6.43494 21.1321 0
9.34622 20.3023 0
7.78702 20.4562 0
-1.07 20.7761 0
-1.82246 19.9311 0
12.3253 20.8327 0
9.34799 20.3005 0
-1.66335 24.2273 0
-0.645053 22.7567 0
-5.00813 22.6709 0
-4.08127 22.7602 0
-3.14877 24.7269 0
-3.71208 24.4887 0
-11.3069 24.5525 0
-8.92768 23.9163 0
4.90276 24.5269 0
5.79915 24.023 0
-0.0532826 28.4985 0
-0.0243674 30.6497 0
-7.03095 24.3376 0
-6.58038 24.7717 0
-0.918285 30.8419 0
-1.34782 32.7301 0
-4.09469 27.9669 0
-2.33763 28.2219 0
9.13973 23.4909 0
7.94561 23.6121 0
9.02188 29.1415 0
7.22495 27.8205 0
5.87101 23.1196 0
6.92832 22.6588 0
2.84938 20.463 0
4.56651 21.5424 0
3.14696 24.5485 0
2.82184 26.4413 0
5.58258 20.3775 0
6.78917 19.7292 0
1.99999 22.4638 0
2.22259 24.1406 0
11.8578 23.3364 0
9.49475 22.9535 0
-1.29367 28.862 0
-0.444369 28.3288 0
-4.17206 30.3275 0
-4.73938 31.7212 0
0.257296 20.7551 0
0.789992 22.1168 0
-5.69604 24.487 0
-4.82469 25.1713 0
-8.54386 22.9805 0
-6.48498 22.4425 0
5.14811 26.1905 0
6.46282 26.3183 0
-7.58611 30.1166 0
-6.63208 28.379 0
-4.90084 26.4921 0
-4.19135 26.911 0
2.28418 28.6574 0
3.19454 28.139 0
-3.11652 30.0873 0
-2.92131 28.5399 0
4.88647 26.4143 0
3.37699 25.8783 0
1.56911 26.3763 0
1.45742 26.2215 0
-3.03364 26.1969 0
-2.27899 26.6444 0
2.20366 31.2102 0
2.72301 32.795 0
0.568498 23.9721 0
1.78089 24.4429 0
-6.76565 26.0141 0
-5.64464 26.8354 0
2.01433 29.6973 0
0.38147 29.8053 0
-1.85699 26.4378 0
-0.582797 27.1472 0
4.79467 29.7776 0
5.52078 27.846 0
-1.55654 30.3701 0
-2.14699 32.5403 0

CELLS 729 2187
2 160 0
2 1 2
2 2 3
2 161 4
2 4 5
2 5 0
2 2 6
2 6 7
2 7 8
2 8 9
2 3 9
2 9 144
2 10 11
2 11 12
2 145 4
2 12 13
2 13 14
2 15 14
2 5 156
2 7 16
2 17 178
2 147 17
2 19 18
2 19 8
2 20 19
2 21 20
2 10 21
2 153 125
2 23 22
2 24 23
2 24 124
2 127 24
2 26 25
2 26 13
2 27 26
2 28 27
2 29 28
2 14 168
2 30 17
2 30 31
2 32 31
2 32 146
2 18 33
2 33 148
2 128 35
2 20 152
2 35 36
2 37 36
2 22 37
2 37 163
2 38 131
2 175 40
2 40 23
2 126 40
2 42 41
2 25 192
2 43 42
2 43 44
2 193 27
2 45 44
2 46 45
2 47 171
2 173 47
2 48 186
2 48 49
2 49 50
2 34 50
2 50 51
2 52 129
2 36 52
2 52 53
2 53 162
2 54 38
2 55 54
2 139 55
2 57 56
2 39 57
2 58 57
2 59 133
2 41 59
2 59 196
2 61 60
2 197 43
2 199 61
2 62 63
2 195 185
2 49 64
2 64 65
2 177 65
2 51 134
2 67 66
2 68 67
2 53 136
2 69 68
2 70 69
2 55 137
2 165 70
2 233 71
2 73 72
2 140 56
2 215 73
2 74 75
2 58 142
2 76 75
2 77 76
2 60 143
2 77 198
2 78 79
2 79 62
2 65 80
2 80 81
2 81 176
2 67 200
2 82 83
2 83 191
2 69 208
2 84 85
2 164 216
2 71 225
2 86 279
2 250 158
2 88 89
2 290 252
2 254 214
2 90 91
2 91 211
2 91 92
2 92 93
2 93 210
2 189 93
2 94 95
2 95 78
2 96 1
2 96 97
2 97 6
2 97 98
2 16 98
2 179 99
2 99 30
2 31 100
2 187 101
2 101 48
2 101 102
2 102 64
2 102 103
2 103 80
2 81 104
2 104 105
2 83 105
2 105 190
2 85 106
2 217 120
2 87 107
2 108 88
2 255 122
2 109 90
2 109 110
2 92 110
2 110 188
2 111 94
2 95 112
2 112 113
2 113 79
2 113 114
2 63 114
2 114 194
2 115 46
2 116 47
2 116 172
2 117 29
2 169 118
2 118 15
2 157 119
2 0 119
2 119 180
2 99 100
2 103 104
2 249 292
2 111 112
2 183 116
2 120 204
2 121 224
2 120 121
2 122 242
2 123 282
2 122 123
2 124 11
2 125 21
2 124 125
2 41 126
2 127 25
2 126 127
2 34 128
2 129 51
2 128 129
2 203 130
2 131 39
2 130 131
2 39 132
2 133 58
2 132 133
2 134 66
2 135 68
2 134 135
2 136 135
2 137 70
2 136 137
2 207 138
2 130 139
2 139 138
2 140 73
2 75 141
2 231 140
2 142 141
2 143 77
2 142 143
2 144 10
2 145 12
2 144 145
2 146 33
2 147 18
2 146 147
2 148 34
2 149 35
2 148 149
2 221 150
2 151 74
2 150 240
2 152 149
2 153 22
2 152 153
2 94 154
2 155 78
2 154 155
2 156 15
2 157 118
2 156 157
2 266 87
2 357 222
2 158 159
2 181 160
2 161 3
2 160 161
2 162 54
2 163 174
2 162 163
2 164 121
2 71 165
2 165 164
2 445 166
2 247 167
2 337 166
2 168 29
2 169 117
2 168 169
2 44 170
2 171 182
2 170 171
2 172 117
2 173 28
2 172 173
2 174 38
2 175 132
2 174 175
2 176 82
2 177 66
2 176 177
2 178 16
2 179 98
2 178 179
2 180 96
2 181 1
2 180 181
2 182 46
2 183 115
2 182 183
2 61 184
2 185 63
2 184 185
2 186 32
2 187 100
2 186 187
2 188 111
2 189 154
2 188 189
2 190 106
2 191 84
2 190 191
2 192 42
2 193 170
2 192 193
2 194 115
2 195 45
2 194 195
2 196 60
2 197 184
2 196 197
2 198 155
2 199 62
2 198 199
2 200 82
2 201 84
2 200 201
2 72 202
2 203 56
2 202 203
2 204 234
2 205 235
2 205 204
2 261 206
2 167 207
2 206 245
2 208 201
2 209 85
2 208 209
2 210 76
2 227 74
2 210 211
2 236 72
2 213 167
2 239 274
2 214 123
2 230 215
2 241 237
2 216 209
2 217 106
2 216 217
2 89 218
2 219 108
2 218 219
2 220 109
2 221 226
2 220 221
2 222 358
2 320 223
2 223 222
2 224 298
2 264 225
2 225 224
2 226 90
2 227 211
2 226 227
2 228 288
2 289 229
2 228 268
2 151 230
2 231 141
2 230 231
2 229 232
2 233 138
2 265 233
2 234 278
2 235 86
2 235 234
2 236 212
2 257 237
2 291 236
2 248 284
2 246 239
2 271 295
2 240 151
2 241 215
2 240 258
2 242 220
2 243 150
2 242 243
2 277 244
2 232 306
2 245 267
2 212 246
2 247 202
2 246 247
2 253 248
2 301 249
2 249 248
2 448 238
2 251 228
2 294 354
2 252 302
2 300 253
2 335 309
2 218 254
2 255 219
2 254 255
2 280 256
2 259 281
2 256 257
2 258 241
2 259 257
2 283 259
2 260 107
2 261 87
2 260 261
2 238 319
2 449 318
2 263 262
2 299 264
2 232 265
2 265 264
2 223 356
2 244 269
2 267 266
2 268 229
2 321 267
2 313 307
2 212 270
2 271 239
2 270 271
2 272 316
2 273 388
2 272 273
2 274 213
2 275 251
2 274 275
2 276 433
2 277 312
2 457 276
2 278 260
2 279 206
2 278 279
2 89 280
2 281 214
2 280 281
2 282 243
2 283 258
2 282 283
2 284 293
2 311 285
2 308 284
2 472 286
2 473 287
2 287 286
2 288 213
2 289 207
2 288 289
2 285 350
2 333 291
2 291 290
2 292 338
2 293 340
2 293 292
2 403 345
2 330 370
2 295 294
2 86 296
2 297 245
2 296 297
2 298 205
2 299 296
2 298 299
2 262 300
2 301 263
2 300 301
2 302 270
2 303 295
2 302 303
2 304 275
2 305 277
2 304 305
2 306 297
2 307 269
2 306 307
2 308 341
2 315 252
2 309 308
2 88 310
2 311 332
2 310 311
2 312 251
2 313 268
2 312 313
2 314 419
2 309 366
2 315 363
2 316 432
2 276 317
2 317 316
2 318 458
2 319 392
2 319 318
2 359 320
2 269 321
2 321 320
2 322 444
2 166 323
2 323 322
2 324 368
2 369 353
2 324 325
2 343 326
2 327 324
2 326 355
2 462 478
2 416 329
2 377 328
2 330 329
2 424 314
2 361 381
2 332 256
2 333 237
2 332 333
2 262 334
2 335 253
2 334 404
2 421 336
2 441 407
2 435 431
2 338 108
2 339 310
2 338 339
2 340 339
2 341 285
2 340 341
2 303 362
2 343 294
2 342 343
2 344 158
2 328 474
2 344 373
2 346 159
2 347 482
2 346 347
2 348 378
2 349 379
2 348 349
2 350 290
2 351 315
2 350 351
2 411 352
2 325 353
2 353 352
2 354 304
2 355 327
2 354 355
2 356 266
2 357 107
2 356 357
2 358 410
2 352 359
2 359 358
2 360 349
2 331 361
2 360 476
2 362 380
2 331 363
2 363 362
2 345 364
2 437 365
2 365 364
2 366 351
2 367 331
2 366 367
2 368 305
2 369 244
2 368 369
2 408 450
2 371 451
2 371 413
2 422 447
2 456 466
2 439 468
2 376 426
2 485 375
2 375 374
2 374 484
2 412 377
2 446 376
2 378 418
2 379 314
2 379 378
2 380 342
2 393 330
2 409 380
2 455 382
2 383 361
2 382 383
2 384 395
2 373 385
2 483 384
2 386 440
2 337 387
2 387 386
2 388 317
2 389 336
2 388 389
2 390 272
2 391 273
2 390 391
2 392 459
2 381 393
2 415 417
2 394 346
2 395 347
2 394 395
2 326 396
2 397 327
2 396 397
2 398 348
2 399 360
2 398 399
2 328 400
2 364 401
2 475 469
2 342 402
2 403 436
2 402 403
2 404 335
2 405 367
2 404 405
2 323 406
2 407 337
2 406 407
2 370 408
2 409 381
2 408 409
2 410 322
2 411 406
2 410 411
2 329 412
2 413 370
2 412 413
2 383 414
2 415 393
2 414 415
2 238 428
2 477 392
2 417 416
2 418 263
2 419 454
2 418 419
2 401 420
2 421 434
2 420 421
2 422 372
2 286 423
2 479 422
2 382 424
2 425 452
2 424 425
2 423 426
2 427 287
2 426 427
2 428 461
2 429 471
2 429 465
2 391 430
2 431 389
2 430 431
2 432 394
2 433 384
2 432 433
2 434 365
2 435 387
2 434 435
2 436 396
2 437 386
2 436 437
2 438 401
2 373 463
2 438 467
2 440 397
2 441 325
2 440 441
2 345 442
2 443 438
2 442 443
2 444 390
2 445 430
2 444 445
2 446 429
2 481 447
2 447 446
2 374 464
2 449 375
2 448 449
2 450 402
2 451 442
2 450 451
2 452 414
2 453 417
2 452 453
2 454 334
2 455 405
2 454 455
2 420 456
2 457 336
2 456 457
2 458 398
2 459 399
2 458 459
2 453 460
2 461 470
2 460 461
2 372 462
2 463 439
2 462 463
2 464 448
2 465 428
2 464 465
2 466 385
2 467 439
2 466 467
2 468 372
2 469 400
2 468 469
2 470 416
2 471 480
2 470 471
2 250 472
2 473 159
2 472 473
2 474 371
2 475 443
2 474 475
2 476 425
2 477 460
2 476 477
2 478 250
2 479 423
2 478 479
2 480 377
2 481 400
2 480 481
2 482 344
2 483 385
2 482 483
2 484 376
2 485 427
2 484 485

CELL_TYPES 729
3
3
3
3
3
3
3
3
3
3
3
3
3
3
3
3
3
3
3
3
3
3
3
3
3
3
3
3
3
3
3
3
3
3
3
3
3
3
3
3
3
3
3
3
3
3
3
3
3
3
3
3
3
3
3
3
3
3
3
3
3
3
3
3
3
3
3
3
3
3
3
3
3
3
3
3
3
3
3
3
3
3
3
3
3
3
3
3
3
3
3
3
3
3
3
3
3
3
3
3
3
3
3
3
3
3
3
3
3
3
3
3
3
3
3
3
3
3
3
3
3
3
3
3
3
3
3
3
3
3
3
3
3
3
3
3
3
3
3
3
3
3
3
3
3
3
3
3
3
3
3
3
3
3
3
3
3
3
3
3
3
3
3
3
3
3
3
3
3
3
3
3
3
3
3
3
3
3
3
3
3
3
3
3
3
3
3
3
3
3
3
3
3
3
3
3
3
3
3
3
3
3
3
3
3
3
3
3
3
3
3
3
3
3
3
3
3
3
3
3
3
3
3
3
3
3
3
3
3
3
3
3
3
3
3
3
3
3
3
3
3
3
3
3
3
3
3
3
3
3
3
3
3
3
3
3
3
3
3
3
3
3
3
3
3
3
3
3
3
3
3
3
3
3
3
3
3
3
3
3
3
3
3
3
3
3
3
3
3
3
3
3
3
3
3
3
3
3
3
3
3
3
3
3
3
3
3
3
3
3
3
3
3
3
3
3
3
3
3
3
3
3
3
3
3
3
3
3
3
3
3
3
3
3
3
3
3
3
3
3
3
3
3
3
3
3
3
3
3
3
3
3
3
3
3
3
3
3
3
3
3
3
3
3
3
3
3
3
3
3
3
3
3
3
3
3
3
3
3
3
3
3
3
3
3
3
3
3
3
3
3
3
3
3
3
3
3
3
3
3
3
3
3
3
3
3
3
3
3
3
3
3
3
3
3
3
3
3
3
3
3
3
3
3
3
3
3
3
3
3
3
3
3
3
3
3
3
3
3
3
3
3
3
3
3
3
3
3
3
3
3
3
3
3
3
3
3
3
3
3
3
3
3
3
3
3
3
3
3
3
3
3
3
3
3
3
3
3
3
3
3
3
3
3
3
3
3
3
3
3
3
3
3
3
3
3
3
3
3
3
3
3
3
3
3
3
3
3
3
3
3
3
3
3
3
3
3
3
3
3
3
3
3
3
3
3
3
3
3
3
3
3
3
3
3
3
3
3
3
3
3
3
3
3
3
3
3
3
3
3
3
3
3
3
3
3
3
3
3
3
3
3
3
3
3
3
3
3
3
3
3
3
3
3
3
3
3
3
3
3
3
3
3
3
3
3
3
3
3
3
3
3
3
3
3
3
3
3
3
3
3
3
3
3
3
3
3
3
3
3
3
3
3
3
3
3
3
3
3
3
3
3
3
3
3
3
3
3
3
3
3
3
3
3
3
3
3
3
3
3
3
3
3
3
3
3
3
3
3
3
3
3
3
3
3
3
3
3
3
3
3
3
3
3
3
3
3
3
3
3
3
3
3
3
3
3
3
3
3
3
3
3
3
3
3
3
3
3
3
3
3
3
3
3
3
3
3
3
3
3
3
3
3
3
3
3
3
3
3
3
3
3
3
3
3
3
3
3
3
3
3
3
3
3
3
3
3
3
3

CELL_DATA 729
SCALARS current_Length float
LOOKUP_TABLE default
0.887795
1.01941
1.47507
1.47994
1.64445
1.47161
0.541734
1.02793
1.75861
1.117
1.01496
1.23098
1.7858
1.48126
0.460926
0.185957
1.7117
1.01983
0.0408362
0.602425
0.562097
0.797921
0.30981
0.691491
1.27958
1.10758
0.787088
1.04601
0.985513
1.96851
0.381709
0.634525
1.85221
0.514559
1.34544
1.12169
0.7714
0.836798
1.07795
0.971294
1.32259
0.857938
2.03084
0.00249726
1.33959
1.57394
1.39785
0.999535
0.762212
0.915329
0.735555
0.726214
1.19336
1.56069
1.75569
1.036
1.01964
1.51379
1.20061
1.4582
1.07812
0.632868
0.71977
0.529635
1.06865
0.828168
1.16278
2.13273
1.6967
1.51837
0.750938
1.1711
1.58638
0.914223
0.899782
0.679931
1.16972
1.66775
0.923082
1.14433
0.890049
1.83033
0.358464
0.676397
0.568809
0.551029
1.0448
0.00250059
1.4088
0.00249142
1.30079
1.67943
0.829538
0.731371
1.12035
1.69341
0.0430963
1.58235
0.242243
0.825095
1.37998
1.15315
0.65097
1.39063
0.267764
0.589212
1.32318
0.412963
0.848918
1.5648
1.03286
1.14667
1.04233
1.23108
1.06595
1.66081
0.808412
0.762895
1.45551
0.552735
1.01903
0.271926
1.10844
0.85974
0.687517
2.09359
0.683037
1.383
2.21336
0.00251984
1.10848
1.05407
2.06514
1.32575
2.5624
0.933438
2.69096
1.11799
2.24858
2.26856
1.63844
3.12905
0.193792
3.20681
1.30323
2.07955
2.17531
0.823518
2.15795
2.07543
2.24399
0.711828
2.3864
3.12254
1.21921
2.45606
1.33961
2.38117
1.21849
2.02978
2.04745
1.40104
2.71215
0.959265
2.99061
0.732467
2.56098
2.63807
1.75585
2.81179
0.617939
2.7576
1.39652
2.05101
1.55882
1.94021
2.09473
1.28939
2.13525
1.02821
0.0100578
0.575119
3.65743
0.973058
1.08672
2.66624
1.44801
1.63895
1.37329
0.388754
1.04489
1.82902
1.81209
1.07195
1.01206
1.35359
1.25461
0.940171
1.49863
1.3511
1.32187
0.964373
1.11732
2.04913
1.0979
1.64956
1.18008
0.303053
2.09962
0.00250442
1.71662
1.49956
1.29826
0.886431
1.65542
1.40812
0.62036
1.43354
1.77524
1.64735
1.65556
1.91216
0.759507
1.1118
2.17811
0.446765
0.632635
2.43411
0.00250004
1.29867
1.62787
1.40859
1.79647
1.56955
0.679
1.72403
2.71098
0.857005
1.84259
1.91199
0.695668
1.01741
1.44554
1.14339
1.13565
1.61177
0.551728
0.30942
3.09422
0.62567
1.0381
1.78065
0.6229
1.70283
2.83849
1.09505
0.969262
1.45089
0.749963
0.977711
2.66484
1.53423
0.845451
1.10689
0.185928
1.0993
1.80657
0.734686
1.741
2.61997
2.09173
1.1363
2.02013
0.770273
1.86304
2.45236
1.16306
0.942322
1.76105
0.313527
1.05216
2.96672
1.39481
0.0844074
3.01292
1.51533
0.683005
2.07109
1.01462
0.682374
1.58744
0.900314
0.478405
3.18296
1.03177
1.07927
2.02047
1.13868
1.97141
0.961273
1.55472
1.76868
0.612366
2.13548
1.56709
0.757828
1.86667
0.709074
2.69086
0.882765
2.22746
1.76556
1.26327
1.55409
1.60702
1.19875
1.23966
0.903708
1.20617
1.3351
0.427588
0.612989
1.4103
0.619827
0.00251162
1.18348
3.33252
1.24282
1.11031
2.3223
1.11763
0.00251776
3.33584
0.648577
1.24325
2.7297
0.69078
1.02565
2.08265
1.42779
0.936082
2.09093
0.943937
1.88047
1.72366
1.50482
0.949513
1.20708
0.833627
2.08112
1.76974
1.04536
0.95844
2.49233
0.738695
1.66357
1.49007
0.729254
1.59219
1.09578
0.964373
0.629167
0.57708
0.784259
0.895036
3.14655
2.3673
2.29056
0.837513
1.60636
0.34296
1.28839
0.557626
1.41307
2.40004
1.54101
0.913791
1.77587
0.629056
1.0112
1.52247
0.902332
1.96678
2.29864
1.76266
1.53869
1.36448
2.06654
1.35175
0.366915
1.88953
0.84667
2.43737
0.321042
1.80781
2.25115
1.7199
0.00251372
1.19503
0.685252
0.468342
1.78232
0.94706
0.764663
1.46703
1.05959
1.02557
1.80743
1.5859
0.654022
1.91162
1.37958
1.17821
1.37672
0.626942
0.171073
1.20814
1.0451
0.656466
2.78379
1.36541
1.48831
0.954202
0.31975
1.20769
2.09516
0.716632
0.611064
2.38583
1.63318
2.39356
1.64182
1.05606
0.985814
1.59927
0.952376
0.187385
0.835608
1.19692
1.30191
2.41057
1.33775
1.31507
0.319456
2.00389
1.2876
0.884959
1.36922
0.439495
1.65194
1.0519
2.08243
2.0263
1.00305
1.64584
1.53724
0.929405
1.05494
2.06858
0.979777
1.64781
0.434716
0.792664
1.62245
0.343149
0.612439
0.545564
2.64498
1.93096
1.28549
1.21252
0.859778
1.48827
0.702884
1.40355
1.09705
1.95069
1.46369
1.02315
2.10222
0.504076
1.00827
1.86908
1.28744
0.938058
2.23729
0.268883
1.52725
2.19895
1.35957
0.771731
1.16386
1.07431
1.00666
1.10353
1.91821
1.39037
0.900685
0.583067
1.28241
2.49171
0.968887
1.92683
2.02363
1.4892
1.23465
1.39416
0.754965
0.851742
3.05746
0.0753698
1.38775
2.22938
0.963638
1.50898
0.414718
0.760445
1.26047
1.72308
1.32927
0.601809
1.68722
1.96328
1.08144
2.1198
2.0352
1.47265
0.902612
1.37163
1.31677
1.30007
0.0910801
1.85082
1.20363
0.721182
1.1218
2.53235
0.580966
0.232006
3.55539
0.713287
0.2333
0.998768
0.502718
1.58715
1.53331
1.47832
0.732089
0.890799
1.06129
1.14641
0.955597
1.36206
0.549551
2.07338
1.32746
0.939772
0.833172
0.426321
0.344316
1.25441
0.737735
1.64278
1.73811
1.09073
0.715904
1.48523
1.24935
0.706415
2.23776
1.74706
0.57877
0.882425
0.00250255
2.13377
1.19029
1.39415
1.7692
1.32919
0.642182
0.69833
1.74339
1.07636
0.655706
1.36766
2.1632
1.3087
1.91808
0.681972
1.28397
1.76755
2.5595
1.74316
1.42852
1.59848
0.943487
1.47596
1.45715
1.0507
1.88861
1.4224
1.2904
1.80779
1.2346
0.618296
1.73745
0.179535
1.53865
1.3793
1.47198
1.23592
1.56678
0.96638
1.63591
1.13146
1.25952
0.00250154
3.0245
0.737482
1.31544
1.78871
0.580676
1.2571
0.931158
1.4283
1.43593
0.611572
0.622343
1.01144
2.46279
1.14478
0.906287
1.02832
1.40054
0.929163
1.37726
1.97023
0.929046
0.625633
0.914342
1.70333
1.93639
1.06033
1.57857
0.664698
1.03666
1.25493
1.20026
1.80533
0.455616
2.23022
1.56642
0.674158
1.15334
0.336629
1.11886
2.02826
0.898069
0.251271
1.34961
1.61734
0.32577
1.36976
0.573477
1.01033
1.69157
1.39145
0.644012
2.39387
1.22461
1.18966
1.00284
0.852565
1.90045
1.50472
0.656007
1.25877
1.46216
1.94201
1.30529
1.10794
0.440979
1.31137
2.12802
1.68158
1.42495
1.32091
2.1354
1.29137
1.9823
1.32299
1.36024
0.823944
1.42748
1.73813
1.0476
1.08252
1.30579
1.5597
0.877595
0.790671
1.60184
1.47059
1.14281
0.190861
1.47451
0.469838
0.877339
0.790194
1.7383
1.66775
1.19982
0.53522
1.30059
1.2561
0.819222
1.3897
1.01078
0.936892
1.63643
1.64478
1.27942
1.45834
0.80321
0.816822
2.06359
3.2945
3.33055
3.432

SCALARS edge_force float
LOOKUP_TABLE default
0.5
0.5
0.5
0.5
0.5
0.5
0.5
0.5
0.5
0.5
0.5
0.5
0.5
0.5
0.5
0.5
0.5
0.5
0.5
0.5
0.5
0.5
0.5
0.5
0.5
0.5
0.5
0.5
0.5
0.5
0.5
0.5
0.5
0.5
0.5
0.5
0.5
0.5
0.5
0.5
0.5
0.5
0.5
0.5
0.5
0.5
0.5
0.5
0.5
0.5
0.5
0.5
0.5
0.5
0.5
0.5
0.5
0.5
0.5
0.5
0.5
0.5
0.5
0.5
0.5
0.5
0.5
0.5
0.5
0.5
0.5
0.5
0.5
0.5
0.5
0.5
0.5
0.5
0.5
0.5
0.5
0.5
0.5
0.5
0.5
0.5
0.5
0.5
0.5
0.5
0.5
0.5
0.5
0.5
0.5
0.5
0.5
0.5
0.5
0.5
0.5
0.5
0.5
0.5
0.5
0.5
0.5
0.5
0.5
0.5
0.5
0.5
0.5
0.5
0.5
0.5
0.5
0.5
0.5
0.5
0.5
0.5
0.5
0.5
0.5
0.5
0.5
0.5
0.5
0.5
0.5
0.5
0.5
2
0.5
2
0.5
2
0.5
0.5
2
0.5
2
0.5
2
0.5
0.5
2
0.5
2
0.5
2
0.5
0.5
2
0.5
2
0.5
2
0.5
0.5
2
0.5
2
0.5
2
0.5
0.5
2
0.5
2
0.5
2
0.5
2
2
2
2
2
2
2
0.5
0.5
2
0.5
0.5
0.5
0.5
0.5
0.5
0.5
0.5
0.5
0.5
0.5
0.5
0.5
0.5
0.5
0.5
0.5
0.5
0.5
0.5
0.5
0.5
0.5
0.5
0.5
0.5
0.5
0.5
0.5
0.5
0.5
0.5
0.5
0.5
0.5
0.5
0.5
0.5
0.5
0.5
0.5
0.5
0.5
0.5
0.5
0.5
0.5
0.5
0.5
0.5
0.5
2
0.5
0.5
2
0.5
0.5
0.5
0.5
0.5
0.5
0.5
0.5
0.5
0.5
0.5
0.5
0.5
0.5
2
0.5
0.5
0.5
0.5
2
0.5
0.5
0.5
0.5
0.5
0.5
0.5
0.5
0.5
2
0.5
2
0.5
0.5
0.5
2
0.5
0.5
0.5
0.5
0.5
2
0.5
2
0.5
0.5
2
0.5
0.5
0.5
0.5
0.5
2
0.5
0.5
0.5
0.5
0.5
0.5
0.5
0.5
0.5
0.5
0.5
0.5
0.5
0.5
2
0.5
0.5
0.5
0.5
0.5
0.5
0.5
0.5
0.5
0.5
0.5
0.5
0.5
0.5
0.5
0.5
0.5
0.5
2
0.5
0.5
2
0.5
2
0.5
0.5
2
0.5
0.5
0.5
0.5
0.5
0.5
0.5
0.5
0.5
0.5
0.5
0.5
0.5
0.5
0.5
0.5
0.5
2
0.5
0.5
0.5
0.5
0.5
0.5
0.5
0.5
0.5
0.5
0.5
2
0.5
0.5
0.5
0.5
0.5
0.5
0.5
0.5
0.5
2
0.5
0.5
0.5
0.5
0.5
0.5
0.5
0.5
2
0.5
0.5
0.5
0.5
0.5
0.5
0.5
2
0.5
0.5
0.5
2
0.5
0.5
0.5
0.5
0.5
0.5
0.5
0.5
0.5
0.5
0.5
0.5
0.5
2
0.5
0.5
0.5
0.5
0.5
0.5
0.5
0.5
2
0.5
0.5
0.5
0.5
0.5
0.5
0.5
0.5
0.5
0.5
0.5
0.5
2
0.5
0.5
0.5
0.5
0.5
0.5
0.5
2
0.5
0.5
0.5
0.5
0.5
0.5
0.5
0.5
0.5
0.5
0.5
0.5
2
0.5
0.5
0.5
0.5
0.5
0.5
0.5
0.5
0.5
0.5
0.5
0.5
0.5
0.5
0.5
0.5
0.5
0.5
0.5
0.5
0.5
0.5
2
0.5
0.5
2
0.5
0.5
0.5
0.5
0.5
2
0.5
0.5
0.5
0.5
0.5
0.5
0.5
0.5
0.5
0.5
0.5
0.5
0.5
0.5
0.5
0.5
0.5
0.5
0.5
0.5
0.5
0.5
0.5
2
0.5
0.5
0.5
0.5
0.5
0.5
0.5
0.5
0.5
0.5
0.5
2
0.5
0.5
2
0.5
0.5
0.5
0.5
0.5
0.5
0.5
0.5
0.5
0.5
0.5
0.5
2
0.5
2
0.5
0.5
0.5
0.5
0.5
0.5
0.5
0.5
0.5
0.5
0.5
0.5
0.5
0.5
0.5
0.5
0.5
0.5
0.5
0.5
0.5
0.5
0.5
0.5
2
0.5
0.5
0.5
0.5
2
0.5
0.5
0.5
0.5
0.5
0.5
0.5
0.5
0.5
0.5
0.5
0.5
0.5
0.5
0.5
0.5
0.5
2
0.5
0.5
0.5
0.5
0.5
2
0.5
0.5
0.5
0.5
0.5
2
0.5
0.5
0.5
0.5
0.5
0.5
0.5
0.5
0.5
0.5
0.5
0.5
0.5
0.5
0.5
0.5
0.5
2
0.5
0.5
0.5
0.5
0.5
0.5
0.5
0.5
0.5
0.5
0.5
2
0.5
0.5
0.5
0.5
0.5
0.5
0.5
0.5
0.5
0.5
0.5
0.5
2
0.5
0.5
0.5
0.5
0.5
0.5
0.5
2
0.5
0.5
0.5
0.5
0.5
0.5
0.5
0.5
0.5
0.5
0.5
0.5
0.5
0.5
0.5
0.5
0.5
2
0.5
0.5
0.5
0.5
0.5
0.5
2
0.5
0.5
0.5
0.5
0.5
0.5
0.5
0.5
0.5
0.5
0.5
0.5
0.5
2
0.5
0.5
0.5
0.5
0.5
0.5
0.5
0.5
0.5
0.5
0.5
0.5
0.5
0.5
0.5
0.5
0.5
0.5
0.5
0.5
0.5
2
0.5
0.5
0.5
0.5
0.5
0.5
0.5
0.5
0.5
0.5
0.5
0.5
0.5
0.5
0.5
0.5
0
0
0
