# vtk DataFile Version 2.0
2D-vertex
ASCII
DATASET UNSTRUCTURED_GRID
POINTS 1998 float
0.87675 -6.65297 0
3.32958 -6.37897 0
3.69218 -5.42318 0
2.6406 -4.38461 0
0.362801 -4.29661 0
-0.318755 -5.79808 0
4.22482 -5.37446 0
4.77481 -4.50377 0
3.80422 -3.02071 0
2.76197 -3.36438 0
1.55467 -2.14106 0
-0.148599 -1.70543 0
-0.881542 -2.99694 0
-1.04067 -3.04024 0
-1.51697 -4.71184 0
-0.98749 -5.58153 0
5.35037 -4.64392 0
6.14241 -3.73681 0
4.26704 -2.26259 0
3.99488 -2.33811 0
3.09486 -1.40676 0
2.02723 -1.52272 0
1.28012 2.07964 0
0.427117 2.03236 0
-0.345774 0.134464 0
-1.53588 -0.802553 0
-1.40876 -2.69746 0
-2.69706 -3.01855 0
-3.18291 -4.05472 0
-2.86525 -4.75718 0
7.21131 -3.69227 0
7.81503 -2.94208 0
7.59415 -1.63811 0
5.34908 -0.546962 0
5.80195 0.0486979 0
3.41673 1.30532 0
2.61549 2.5692 0
1.72756 2.70119 0
0.729427 5.88002 0
-0.846944 5.87934 0
-0.463682 2.81855 0
-1.94338 1.84251 0
-2.95886 0.27593 0
-3.92125 0.289904 0
-4.62579 -1.12566 0
-6.03042 -1.4616 0
-6.29289 -2.52333 0
-4.74131 -3.85165 0
8.00245 -0.986485 0
7.62829 0.0324658 0
6.86803 0.421919 0
6.05947 2.45842 0
3.67615 3.56855 0
3.57621 4.44536 0
2.08575 6.0336 0
2.60163 6.75458 0
-1.82916 7.25068 0
-1.70945 6.3112 0
-2.93256 4.93674 0
-2.56161 2.78997 0
-4.19907 3.06626 0
-5.55761 1.72847 0
-7.44759 0.212869 0
-7.29441 -0.324939 0
8.53129 0.480233 0
8.53121 0.482732 0
6.97364 2.474 0
7.35878 3.70054 0
6.03822 4.91755 0
6.22039 5.6175 0
5.37297 6.6087 0
5.06333 7.13573 0
-2.54292 9.56385 0
-2.82003 9.17899 0
-5.94823 6.18809 0
-5.27115 5.41113 0
-5.9784 4.02633 0
-5.89074 3.85845 0
-8.43878 0.716443 0
-8.27922 0.355314 0
10.0437 0.855543 0
10.3212 1.83345 0
9.48519 2.78479 0
10.6219 3.25857 0
10.2479 4.77764 0
10.4037 5.50486 0
9.33419 10.1084 0
10.1815 12.2476 0
-9.42045 11.2236 0
-9.42028 11.2211 0
-9.90889 5.31948 0
-9.60621 4.79157 0
-9.94242 4.15449 0
-9.18324 3.06179 0
-9.9699 1.79268 0
-9.49109 0.807971 0
4.30825 -8.19733 0
5.4961 -7.60147 0
6.32256 -7.1596 0
8.61393 -5.46261 0
9.84522 -3.96754 0
11.0733 -1.56793 0
11.1639 -1.38267 0
11.8169 -0.26517 0
12.5022 1.70708 0
12.6713 2.51448 0
12.6456 6.05716 0
12.7172 12.8662 0
-12.9714 11.7404 0
-12.4706 5.26517 0
-12.3767 3.96934 0
-11.9689 1.4103 0
-11.0627 -0.521113 0
-10.1779 -1.61075 0
-9.54918 -2.32992 0
-8.59243 -3.64971 0
-6.58991 -5.73373 0
-4.46095 -7.06981 0
-2.31791 -7.99227 0
0.718537 -8.69811 0
12.4109 7.56446 0
8.34114 7.50662 0
-12.7397 7.79387 0
-9.85787 8.58949 0
-0.0848594 -0.194051 0
1.21056 -0.0510227 0
-1.68683 1.81795 0
-0.882457 0.10954 0
4.66798 1.55452 0
5.03356 2.49271 0
0.38737 7.49563 0
0.19626 6.35243 0
-1.00775 4.15694 0
-2.18237 3.82999 0
6.05842 2.46067 0
5.1388 4.40353 0
4.14504 4.86328 0
4.09937 6.24307 0
2.02901 7.79294 0
2.02714 7.79128 0
-2.28542 7.44534 0
-3.84314 5.61625 0
-3.3896 4.94073 0
-4.33581 3.65175 0
1.6954 -2.77403 0
0.28032 -3.82417 0
6.7636 -1.43062 0
5.73427 -3.02025 0
5.347 -0.545579 0
3.29616 0.181841 0
-8.7788 6.9701 0
-5.76843 6.88815 0
3.29366 0.181791 0
1.83789 0.803662 0
-9.18762 2.99309 0
-7.76832 2.40269 0
-0.351478 -5.81619 0
-0.669546 -8.50682 0
13.8418 27.4618 0
17.0846 26.0164 0
1.67931 -6.27855 0
1.73477 -4.82609 0
2.56909 4.78723 0
1.43154 3.72451 0
8.19328 7.0358 0
5.37303 6.61121 0
7.81057 17.9407 0
-0.169544 9.47984 0
-2.29258 -4.99793 0
-2.90569 -7.76824 0
-4.0291 -2.03353 0
-4.88295 -3.23301 0
-5.12648 -6.70731 0
-4.13473 -4.23258 0
0.498659 4.16149 0
-0.398212 3.7018 0
9.46016 2.63111 0
7.91025 1.76613 0
5.97839 -4.2763 0
7.77206 -6.19387 0
2.27976 -8.70999 0
2.23865 -6.68935 0
-5.83688 -3.13902 0
-7.37107 -5.05726 0
-5.13358 0.637324 0
-6.42674 -0.633033 0
7.85694 -1.49244 0
10.3817 -3.05502 0
-12.2372 2.79968 0
-9.20508 3.02456 0
12.8431 4.57572 0
10.7722 4.28716 0
-2.50787 -0.648846 0
-3.37573 -2.02615 0
-9.10439 -2.90157 0
-6.40028 -1.19788 0
-3.38529 2.57682 0
-4.09435 0.580649 0
-6.62012 2.60489 0
-6.18078 1.80602 0
8.31179 3.91402 0
8.49644 4.41403 0
-0.919224 9.29816 0
-0.643517 8.12727 0
12.4149 7.57374 0
9.69983 8.71249 0
9.43698 10.996 0
1.67716 8.39423 0
7.82361 5.65524 0
8.99663 6.42428 0
-7.12209 4.11129 0
-7.47327 4.86654 0
-2.34624 11.64 0
0.540658 10.8342 0
-9.78596 9.09765 0
-4.01048 8.99427 0
8.99519 6.42634 0
12.4582 7.09272 0
-10.5433 10.2686 0
-13.0554 10.7461 0
-12.5236 6.27078 0
-9.04697 6.52074 0
11.9451 15.5764 0
9.48159 13.7015 0
7.98238 7.94677 0
5.85149 8.03462 0
-9.04701 6.51822 0
-7.16811 5.83635 0
1.91176 11.4042 0
3.70033 9.78314 0
-4.28914 7.37749 0
-3.5276 6.74731 0
4.3878 9.5609 0
3.5615 7.94979 0
12.661 9.28426 0
9.87781 9.2659 0
-2.96234 11.1924 0
-4.42609 9.96205 0
-13.0017 23.1148 0
-0.169699 12.5033 0
-6.35667 7.42739 0
-4.29151 9.18425 0
-12.5994 7.00345 0
-9.22893 7.5628 0
5.19197 13.7394 0
7.51663 11.7353 0
-1.34051 11.2455 0
-0.758018 9.50305 0
-9.91439 14.5129 0
-13.2167 13.5475 0
17.7934 31.1287 0
1.78617 12.5595 0
-2.92796 14.0217 0
-9.84621 14.9505 0
-10.5109 9.57928 0
-12.9546 8.84828 0
-6.38388 11.2352 0
-5.83059 10.1555 0
-6.22875 8.19682 0
-7.00563 9.12169 0
12.7887 11.0321 0
10.174 11.5937 0
-10.6978 15.9847 0
-13.7602 15.8885 0
5.59244 9.14711 0
4.40948 9.4881 0
9.4842 12.8834 0
7.53923 12.3067 0
3.47228 10.9833 0
5.93511 13.0466 0
-2.17428 13.2429 0
-0.783689 13.5574 0
13.1462 17.5646 0
10.2157 18.7468 0
-0.129481 12.4957 0
0.730832 13.1928 0
10.8871 20.5081 0
3.29781 13.1566 0
12.7098 10.1413 0
9.60012 10.4843 0
-8.22861 10.727 0
-8.25979 9.84311 0
-9.11999 7.91532 0
-7.01108 8.73273 0
-9.5494 14.1689 0
-5.91775 13.128 0
20.2787 34.4525 0
22.5386 34.2371 0
1.34419 10.7588 0
2.21328 9.22087 0
-3.8813 12.8888 0
-3.74012 11.5579 0
-13.0627 12.809 0
-9.76838 13.4486 0
-0.634858 15.2468 0
-0.637084 15.2456 0
7.18556 10.0774 0
6.70943 10.9924 0
8.19561 8.46131 0
7.07208 9.8133 0
-10.6411 15.4499 0
-13.4258 14.2992 0
-2.76603 14.0246 0
-1.75351 15.5682 0
1.01657 14.4265 0
2.45929 14.4499 0
5.69393 11.1234 0
5.35101 11.8116 0
-7.08638 14.4193 0
-6.81098 14.9833 0
-8.81553 12.0096 0
-6.14508 12.2087 0
3.27971 13.1054 0
4.14207 11.8449 0
-9.96369 18.0003 0
-3.79489 15.2343 0
13.5897 18.437 0
11.0026 19.6312 0
-16.1803 22.0184 0
-13.5337 22.227 0
7.51677 14.0958 0
6.7662 13.1524 0
11.9217 15.6871 0
7.94124 16.9623 0
3.10344 15.8406 0
4.7659 16.4513 0
0.500008 17.3805 0
2.49151 16.2984 0
-1.01237 24.051 0
-3.54142 22.3185 0
-2.96299 20.604 0
-4.2182 17.2467 0
-5.98051 11.9795 0
-3.93928 11.4351 0
-9.21645 16.9302 0
-7.76467 15.8677 0
6.41291 21.3914 0
5.97677 18.288 0
-12.9724 12.1071 0
-9.12112 12.4759 0
-9.05209 12.6461 0
-6.83881 13.6379 0
-0.656209 17.6821 0
-0.388757 17.3226 0
13.377 26.8876 0
1.65905 21.2186 0
16.1413 23.2127 0
13.8474 23.873 0
-14.6923 17.657 0
-11.8164 18.4969 0
-5.12996 13.5062 0
-4.96599 14.9134 0
6.87897 14.9967 0
5.78311 14.9795 0
0.699141 14.9356 0
1.30413 16.0408 0
9.67725 13.3505 0
12.5283 13.8555 0
11.9199 15.6544 0
7.49927 14.4307 0
-11.469 19.5179 0
-4.20049 17.807 0
-2.33081 16.6803 0
-3.38276 16.5366 0
2.81344 21.4524 0
3.45517 20.6732 0
-5.46626 15.3395 0
-5.35564 16.6423 0
3.13031 15.1717 0
5.18561 14.3461 0
-1.94625 20.5492 0
-0.521072 22.1281 0
1.76888 27.6021 0
11.1481 27.4124 0
-19.2265 35.9338 0
-20.7825 34.8623 0
-21.5806 45.8355 0
-2.48863 23.5866 0
-13.8493 16.0542 0
-11.6176 18.1809 0
-1.83228 17.6092 0
-3.24205 18.5476 0
-6.90713 18.1696 0
-5.46887 18.6067 0
11.8182 23.2836 0
10.4996 26.6105 0
3.94754 18.8285 0
5.39819 19.0922 0
10.1602 18.937 0
7.22126 20.0614 0
12.1574 16.0638 0
10.0409 18.532 0
-13.1323 21.5072 0
-3.61002 19.8478 0
15.2282 21.5015 0
13.4213 23.2104 0
1.55117 18.3962 0
2.71258 17.6364 0
-15.3605 19.0617 0
-13.1947 20.4301 0
-1.82321 25.8359 0
3.37027 22.8063 0
-0.00671956 19.2962 0
1.2178 19.5865 0
-7.75052 16.0776 0
-6.3784 17.0798 0
7.08581 16.2098 0
5.54834 17.0772 0
-1.43683 19.7331 0
-2.24858 18.3804 0
11.9155 15.6661 0
7.26824 15.6968 0
-2.5939 22.9758 0
-1.37832 21.917 0
-5.42232 19.3776 0
-4.46525 20.0759 0
-4.24267 22.4271 0
-4.9275 21.4242 0
-13.7662 15.8967 0
-9.86826 17.5685 0
4.37701 22.7895 0
5.02354 21.4441 0
-0.347054 28.77 0
24.7048 56.4706 0
-7.65484 19.0417 0
-7.38516 20.2464 0
16.4923 74.4379 0
17.5108 75.8564 0
-9.59551 25.1309 0
-7.72814 27.8917 0
8.37827 18.365 0
7.07724 19.7202 0
14.0243 19.2508 0
11.2702 20.7671 0
4.68016 20.8135 0
5.58512 19.531 0
1.62079 19.2301 0
3.12567 19.6934 0
2.7446 23.5275 0
4.61303 27.3724 0
3.72405 17.9917 0
4.88206 16.8811 0
1.20701 21.6936 0
1.58891 23.1804 0
11.9628 15.7839 0
8.3525 18.2224 0
-6.69567 34.1259 0
-4.48933 30.34 0
-13.4638 24.4718 0
-16.4831 23.8668 0
-0.439165 19.8273 0
0.133328 21.4385 0
-6.85953 20.4376 0
-6.53513 21.4226 0
-9.22733 17.2982 0
-6.91499 18.1492 0
7.6124 23.6349 0
8.54275 21.7454 0
-15.9797 20.839 0
-13.4209 21.0822 0
-6.94763 22.0551 0
-6.88955 23.7403 0
4.6395 31.9499 0
8.02771 29.6735 0
-13.8914 26.2731 0
-9.42028 26.2724 0
7.49669 24.3182 0
5.05501 26.0151 0
2.10184 27.2627 0
1.13017 25.2296 0
-4.47389 24.2965 0
-4.27277 24.46 0
19.9839 33.54 0
21.8785 32.3634 0
-0.218379 23.3385 0
0.958455 23.7383 0
-8.93996 20.9415 0
-9.08475 21.3058 0
6.60133 36.5411 0
13.3093 43.9504 0
-3.09998 24.3067 0
-2.53738 25.6801 0
13.5963 24.4822 0
11.1749 25.053 0
-20.168 39.5914 0
-22.2209 38.4378 0
-18.2605 38.1349 0
-8.03294 33.031 0
8.82452 21.0347 0
8.36832 20.1859 0
-9.96998 23.2218 0
-8.48601 22.1197 0
11.5878 22.9409 0
9.21039 23.0526 0
-1.73624 36.3411 0
-0.532702 30.5647 0
-9.26786 18.8983 0
-9.77143 19.7916 0
16.5545 24.4356 0
14.0421 25.0346 0
14.4136 19.898 0
12.0099 21.7231 0
16.413 29.5679 0
12.545 31.097 0
-1.69655 28.7087 0
-1.39254 26.9669 0
-15.716 30.6249 0
-17.8768 29.2733 0
2.91541 24.829 0
1.80429 25.5586 0
7.15994 28.8794 0
6.30192 25.6772 0
4.91656 23.3352 0
4.02377 24.7427 0
-5.78967 27.425 0
-5.17057 28.295 0
6.89664 22.0466 0
6.66881 22.7607 0
5.47222 29.073 0
6.13917 31.8561 0
-13.4299 24.5763 0
-10.2906 24.8352 0
18.0126 30.3912 0
20.2805 29.4458 0
-8.30549 24.5368 0
-5.57712 26.7141 0
-14.1342 33.2292 0
-10.1388 31.0604 0
3.2817 31.4823 0
2.89706 31.7748 0
-16.332 23.0401 0
-13.1597 23.3742 0
[...]
CELL_DATA 1000
SCALARS cell_division_count float
LOOKUP_TABLE default
1
0
1
0
0
0
1
0
0
1
1
1
1
1
1
1
0
1
1
1
1
1
1
0
1
1
1
1
1
1
1
1
2
4
3
1
1
0
0
1
1
0
0
0
1
2
3
0
1
0
0
1
1
1
1
1
0
0
3
0
1
2
3
1
1
1
1
1
1
1
2
2
1
1
1
1
2
1
1
1
3
1
1
2
9
1
1
1
1
1
1
1
1
1
1
1
1
1
1
1
1
1
2
3
5
2
1
3
5
2
2
2
5
3
2
4
2
3
5
5
6
3
3
6
3
4
6
9
3
5
4
4
8
5
6
6
5
4
5
14
5
5
5
7
5
4
6
4
10
5
3
4
6
6
6
7
6
6
11
7
8
7
6
7
8
18
11
6
8
9
4
7
8
13
6
7
7
8
8
3
6
12
10
11
9
7
11
13
9
16
8
11
10
11
9
9
5
14
6
10
8
13
10
10
8
11
6
10
11
14
8
11
13
11
9
12
9
8
9
11
13
9
11
6
16
13
11
12
11
13
8
13
13
12
15
14
10
8
12
13
14
11
12
15
17
9
14
15
15
12
7
9
14
15
11
14
14
14
13
13
12
12
8
12
16
14
8
9
17
14
15
17
14
14
13
11
14
14
14
15
14
15
14
8
15
9
9
14
13
13
14
12
12
10
12
12
14
15
7
13
13
15
11
14
14
14
8
13
15
12
16
15
15
15
13
14
15
16
12
15
19
10
11
14
16
14
16
17
14
15
12
7
13
13
19
14
15
13
16
16
13
16
15
12
15
14
17
13
10
9
14
18
13
15
14
15
11
17
15
15
17
15
14
14
13
15
14
22
16
15
17
15
15
15
17
8
16
15
15
16
13
14
10
19
16
17
12
16
18
14
18
16
15
9
16
15
14
16
22
16
19
14
15
15
22
18
14
17
8
11
11
14
15
12
17
15
15
16
17
15
16
15
16
16
16
22
16
15
15
17
20
16
20
17
17
18
15
19
14
16
23
11
11
13
15
16
17
18
20
19
17
18
17
17
17
15
17
16
17
16
19
12
11
16
17
17
20
13
16
19
15
16
15
20
20
19
20
15
22
24
17
20
18
20
20
15
14
18
16
16
16
17
19
16
18
15
17
17
17
13
17
18
22
17
18
17
20
23
17
16
22
22
20
21
20
16
11
22
17
18
17
16
19
17
16
20
21
17
17
18
13
20
13
21
17
18
17
20
18
22
18
17
13
17
15
18
24
19
17
19
24
21
19
22
16
17
24
23
12
16
14
16
21
10
22
16
19
17
22
20
17
23
19
18
22
21
18
22
18
17
12
14
16
20
20
19
20
21
21
18
20
19
18
18
17
16
18
19
19
22
20
11
19
19
14
17
22
21
24
17
19
20
23
14
19
22
21
24
19
20
21
21
23
22
18
14
21
21
22
20
21
18
21
21
20
23
22
21
15
18
20
13
21
19
21
20
21
17
13
19
24
23
21
23
21
21
22
17
20
22
22
24
18
23
17
20
18
22
22
22
23
15
20
20
25
21
21
17
22
14
22
23
20
23
20
15
20
20
20
20
23
18
22
15
20
22
21
23
22
20
18
21
18
18
18
20
19
21
24
21
19
16
24
25
21
25
24
22
19
21
15
21
21
22
21
24
23
20
21
17
22
23
16
21
21
23
21
22
23
23
21
23
22
23
21
22
22
22
22
18
22
15
23
18
21
22
22
19
25
15
15
21
13
18
22
22
18
22
20
20
20
21
24
16
24
15
21
21
23
21
23
23
21
24
21
14
15
25
21
14
21
22
25
15
22
22
20
24
21
18
23
23
23
23
21
22
22
17
22
23
17
22
20
17
22
21
22
21
22
23
16
24
23
22
21
23
22
24
23
22
22
22
24
23
23
23
20
24
21
22
21
25
21
22
15
23
21
21
20
25
23
21
24
20
25
20
25
16
19
23
25
21
21
22
24
25
20
24
21
23
23
23
23
19
23
21
22
23
15
24
16
19
15
23
20
21
24
17
16
20
21
22
22
24
16
23
21
23
22
22
23
22
23
24
22
21
16
21
21
22
23
22
24
23
23
22
25
24
17
24
23
23
22
21
22
23
21
20
22
19
20
22
23
23
23
17
20
20
20
20
24
24
23
15
22
15
23
22
22
25
21
22
23
20
21
24
22
23
21
25
20
16
23
21
25
25
21
15
21
22
20
22
22
25
23
15
23
22
21
25
22
23
21
23
25
24
20
23
21
22
20
25
21
15
24
23
23
17
21
25
SCALARS cell_time float
LOOKUP_TABLE default
3151
2.22229e+13
3171
4.48239e+13
2.67348e+11
1.25633e+10
3181
2.68224e+09
9.19769e+11
3171
3171
3161
3131
3181
3101
3141
1.22916e+06
3181
3151
3181
3181
3081
3121
26963.4
3181
3181
3181
3181
3181
3071
3131
3071
3031
2771
2921
3021
3161
1.00108e+18
2.94533e+15
3131
3121
108263
4525.76
3237.34
3111
3011
2811
3228.01
3121
5879.01
3496.18
3101
3141
3151
3161
3131
1.12104e+13
24346.3
2601
5217.96
3131
3051
2871
3181
3181
3181
3181
3181
3181
3181
3061
2941
3181
3171
3171
3171
3001
3161
3161
3161
2301
3151
3151
3011
1931
3151
3141
3141
3131
3131
3131
3131
3131
3121
3121
3121
3111
3101
3101
3081
3071
3071
3061
2931
2751
3031
3021
2871
2651
3011
3011
3011
2301
2591
3001
2621
2941
2931
2661
2621
2511
2891
2871
2501
2871
2591
2601
2291
2811
2661
2791
2791
1571
2601
2491
2521
2721
2501
2691
1521
2661
2661
2651
2351
1781
2621
2391
2371
2021
2601
2591
2591
2591
2581
2521
2321
2511
2501
1861
1931
1851
2311
1901
2241
2311
841
1991
2391
2381
1931
2371
2351
2351
1201
1711
2181
2321
2041
2311
2301
2031
1721
2171
1931
2251
2241
1871
1661
1351
571
1991
2041
2161
1751
1931
1731
2131
1521
2111
2111
1511
1531
2081
2051
2041
2041
2031
2021
2001
1541
1991
1981
1261
1971
1191
1421
1931
1711
1931
1931
1651
1931
1921
1901
1081
1081
1871
1871
1861
1641
1851
1401
1391
1361
1361
1561
1791
1011
1771
1761
931
1761
1381
61
601
1731
1521
1371
841
1721
1411
1501
1081
1401
921
1401
1401
1401
1471
1641
1461
1461
1091
1421
1041
1141
1571
1571
861
1561
991
621
1541
1341
1531
851
1531
1521
1521
271
1521
1041
1521
1511
1381
1321
1501
1381
1381
1471
1021
1461
1451
1441
1421
1421
1041
1271
1411
1411
1401
1401
1011
1401
1401
1401
1211
1391
1121
1381
841
971
1381
1121
1381
1201
1371
1091
1361
1361
561
631
1351
1181
851
1341
721
711
1171
841
691
1311
511
1301
651
1281
1271
1261
1071
801
1251
1021
1241
1231
1051
1231
871
1211
1211
1051
1211
581
1201
1001
1201
941
561
851
1011
1181
131
1031
1171
291
811
791
1141
121
1001
1121
661
1121
991
1121
791
1091
1091
1091
1091
1081
1081
1081
1081
561
961
491
601
1071
611
1061
571
811
1051
1051
1041
1041
1041
131
331
651
461
1031
291
1031
401
801
1021
871
1011
721
1011
1011
1011
861
751
1001
871
1001
871
991
991
991
751
851
981
151
631
971
971
821
481
961
411
691
701
371
941
531
931
931
31
921
921
781
71
801
621
771
431
571
711
281
871
681
871
871
871
641
861
711
561
861
851
851
851
691
591
561
851
741
841
841
841
131
481
191
371
401
41
111
711
91
691
491
401
331
641
301
811
601
801
651
671
801
501
791
791
691
581
781
611
771
351
771
771
481
421
151
751
751
281
121
601
181
511
721
721
401
711
591
711
141
591
711
711
91
241
711
701
701
291
281
491
231
691
691
691
221
691
301
451
691
481
681
201
441
91
671
661
551
161
531
651
221
651
651
91
111
641
641
641
641
131
631
131
631
631
621
241
501
621
101
621
611
311
271
411
221
491
601
601
601
601
601
501
151
431
371
471
591
341
591
581
291
581
571
571
371
571
241
421
561
561
561
361
31
461
261
181
241
551
551
91
431
541
301
271
161
531
161
251
101
121
81
311
261
221
321
271
41
501
501
501
381
501
81
291
371
91
381
491
491
281
301
341
481
271
481
481
171
221
51
471
111
471
211
111
461
181
321
461
161
451
281
241
81
441
331
231
91
61
141
431
101
111
211
261
431
101
431
121
201
421
221
421
281
421
421
421
411
121
411
401
401
401
401
51
141
131
391
381
381
381
381
371
371
101
211
111
371
371
241
281
41
371
191
121
121
221
121
231
361
201
351
81
81
341
341
341
111
331
261
121
331
121
51
121
331
171
161
31
231
231
151
71
321
321
151
311
311
81
91
81
301
81
301
301
301
81
151
291
41
291
291
291
101
281
281
141
281
81
281
111
81
281
271
141
271
91
271
101
101
271
271
171
261
41
51
261
261
261
261
31
251
91
121
171
131
251
251
101
111
111
251
241
241
241
241
61
241
241
71
71
101
111
231
91
111
231
231
131
141
131
71
131
221
221
41
121
221
221
111
221
81
221
221
101
51
211
121
211
91
61
71
201
201
201
81
101
191
191
181
181
181
81
51
81
171
171
171
61
171
91
61
161
71
161
161
81
161
51
41
151
151
151
51
151
71
151
151
141
141
141
141
141
141
141
131
131
131
131
131
131
131
131
131
131
131
121
121
121
121
121
121
121
121
121
121
121
121
121
121
111
111
111
111
111
111
111
111
111
111
111
111
111
101
101
101
101
101
101
101
101
101
101
101
101
101
91
91
91
91
91
91
91
91
91
91
91
91
91
81
81
81
81
81
81
81
81
81
81
81
81
81
81
81
81
71
71
71
71
71
71
71
71
61
61
61
61
61
61
51
51
51
51
51
51
51
51
41
41
41
41
41
41
41
31
31
31
31
SCALARS cell_area float
LOOKUP_TABLE default
3.24166
3.29966
3.29283
3.35569
3.3509
3.34296
3.32568
3.37389
3.34823
3.28111
3.33589
3.28155
3.38511
3.31811
3.30523
3.32939
3.39794
3.28764
3.34491
3.39608
3.39066
3.33841
3.33853
3.37084
3.35685
3.374
3.43784
3.39992
3.38974
3.32819
3.24639
3.29577
3.3499
3.33503
3.44123
3.24875
3.34429
3.25263
3.26111
3.24858
3.23678
3.27785
3.26136
3.27821
3.21941
3.28355
3.2544
3.26234
3.25857
3.24794
3.26767
3.27326
3.21649
3.25718
3.24479
3.24217
3.20948
3.21659
3.26242
3.1957
3.24621
3.30491
3.26766
3.2796
3.33626
3.2841
3.39679
3.34984
3.27872
3.35489
3.44972
3.3488
3.35528
3.28615
3.24759
3.27387
3.33973
3.35013
3.2307
3.22213
3.21627
3.25833
3.33344
3.32982
3.3664
3.22265
3.29613
3.2523
3.36812
3.28649
3.22451
3.20368
3.21587
3.30307
3.25147
3.24435
3.25805
3.3233
3.26303
3.29914
3.28888
3.26259
3.39942
3.23068
3.29051
3.2394
3.32682
3.38059
3.28923
3.27815
3.25613
3.27101
3.26992
3.29122
3.24451
3.31344
3.35437
3.40358
3.25328
3.41986
3.30058
3.34625
3.27071
3.34557
3.40344
3.25587
3.43782
3.3928
3.21382
3.27739
3.33234
3.20438
3.27325
3.36872
3.31116
3.35186
3.36309
3.25376
3.36155
3.30366
3.2474
3.27862
3.3135
3.271
3.22616
3.34502
3.39854
3.266
3.38156
3.31113
3.29808
3.22687
3.36908
3.35841
3.38071
3.38334
3.33564
3.3059
3.35145
3.26209
3.24906
3.40757
3.27871
3.31641
3.36476
3.38877
3.36766
3.32602
3.29846
3.36306
3.26847
3.32246
3.42995
3.2913
3.26164
3.22277
3.35781
3.36322
3.39093
3.23654
3.29427
3.30643
3.43663
3.38938
3.38703
3.3146
3.38614
3.4064
3.28936
3.35302
3.26837
3.41044
3.4027
3.27685
3.35286
3.26653
3.22648
3.28356
3.22678
3.34006
3.25038
3.3476
3.42033
3.35077
3.29722
3.39116
3.28451
3.35022
3.38495
3.36778
3.30358
3.39081
3.4063
3.35867
3.31522
3.31759
3.33904
3.26378
3.37114
3.3702
3.4483
3.3495
3.40263
3.2702
3.39653
3.27389
3.39795
3.33109
3.3073
3.37084
3.21021
3.36104
3.44065
3.25726
3.35139
3.41817
3.43179
3.26641
3.39325
3.38631
3.28633
3.3753
3.26133
3.32902
3.34071
3.33669
3.38083
3.29187
3.33102
3.31557
3.27715
3.23653
3.33176
3.38468
3.29319
3.39379
3.32322
3.35563
3.41068
3.3405
3.35409
3.30164
3.22174
3.36815
3.38159
3.41874
3.26424
3.27252
3.41584
3.37985
3.38983
3.32885
3.37839
3.39057
3.3854
3.30934
3.3437
3.33301
3.35107
3.27788
3.25809
3.36377
3.37275
3.25456
3.37878
3.24658
3.28605
3.28549
3.35705
3.34906
3.36963
3.30469
3.37553
3.27525
3.39156
3.35352
3.37513
3.401
3.29284
3.40155
3.33593
3.38817
3.33294
3.34785
3.34993
3.33019
3.24219
3.40479
3.39527
3.30733
3.41559
3.33925
3.31901
3.33593
3.40034
3.31975
3.39873
3.37467
3.35361
3.35226
3.3456
3.3079
3.27993
3.34367
3.38091
3.35645
3.33654
3.31205
3.37335
3.32118
3.30712
3.2645
3.29679
3.33933
3.36457
3.38468
3.35834
3.30424
3.38519
3.38315
3.35713
3.30707
3.27149
3.28604
3.33373
3.36208
3.34886
3.3537
3.23549
3.3329
3.43543
3.40912
3.33538
3.35709
3.32137
3.35633
3.28104
3.37761
3.36288
3.35528
3.31108
3.3178
3.35305
3.26274
3.29615
3.2852
3.35152
3.30442
3.3969
3.35274
3.38761
3.31872
3.41455
3.35812
3.33662
3.25794
3.36651
3.31998
3.38844
3.37118
3.28867
3.29786
3.30353
3.37614
3.35752
3.33564
3.30418
3.37495
3.39282
3.31671
3.38363
3.33515
3.34091
3.29937
3.28067
3.37721
3.31218
3.36565
3.3179
3.30997
3.31578
3.30567
3.30389
3.38233
3.37726
3.35687
3.34566
3.29492
3.27362
3.28881
3.28784
3.3643
3.37721
3.28923
3.36786
3.31906
3.3218
3.36227
3.35284
3.36496
3.32684
3.37979
3.37363
3.43563
3.38131
3.29414
3.38315
3.36426
3.39851
3.39116
3.37067
3.38035
3.36424
3.33822
3.33146
3.32919
3.30157
3.38642
3.31932
3.34096
3.29018
3.2761
3.25793
3.29738
3.29508
3.31413
3.36183
3.38054
3.35528
3.42062
3.35454
3.2902
3.31071
3.39588
3.38096
3.30492
3.33141
3.33642
3.3744
3.33374
3.38746
3.27245
3.30356
3.39503
3.36793
3.42177
3.3552
3.31836
3.3242
3.40892
3.3164
3.39522
3.32597
3.36018
3.31512
3.33435
3.37351
3.30361
3.3174
3.36366
3.36007
3.32406
3.37308
3.41077
3.35835
3.31923
3.30398
3.40934
3.30597
3.31998
3.39915
3.31722
3.38707
3.32094
3.34722
3.35171
3.32813
3.33596
3.32572
3.29724
3.35374
3.36596
3.37854
3.36647
3.38223
3.33335
3.35688
3.32085
3.39343
3.38839
3.3136
3.34285
3.34523
3.35297
3.36405
3.3612
3.24621
3.41713
3.31161
3.37133
3.34748
3.31878
3.448
3.40057
3.39153
3.34513
3.35081
3.34799
3.29966
3.35475
3.31559
3.31639
3.34221
3.36875
3.33297
3.38724
3.35874
3.32053
3.38601
3.40188
3.39339
3.36722
3.32631
3.39054
3.3313
3.30248
3.33301
3.40379
3.39416
3.38999
3.36475
3.2748
3.42539
3.34988
3.36625
3.34601
3.37437
3.36656
3.30874
3.34446
3.29971
3.32957
3.34011
3.23465
3.37027
3.34866
3.33683
3.35396
3.34348
3.3375
3.3435
3.33176
3.44993
3.36291
3.42658
3.33406
3.38252
3.35165
3.35966
3.25738
3.30343
3.25214
3.30165
3.40174
3.40656
3.30137
3.38099
3.37958
3.31262
3.37243
3.36545
3.31105
3.37247
3.37369
3.334
3.28406
3.31211
3.28434
3.38344
3.35707
3.32132
3.25495
3.3809
3.39546
3.32425
3.33494
3.35973
3.35409
3.31037
3.3078
3.33175
3.33258
3.34771
3.33027
3.3707
3.28958
3.31582
3.36456
3.32772
3.29589
3.36128
3.3295
3.32438
3.34804
3.35778
3.30894
3.34525
3.29637
3.38685
3.32864
3.3333
3.29543
3.40034
3.40598
3.36861
3.38198
3.39543
3.38471
3.33436
3.35231
3.3884
3.31081
3.37475
3.35795
3.36187
3.4121
3.37928
3.34711
3.32489
3.3063
3.35359
3.32112
3.31353
3.33508
3.37048
3.31779
3.33414
3.33186
3.31999
3.3592
3.36402
3.35718
3.39868
3.31514
3.31479
3.34066
3.3428
3.36862
3.35795
3.33271
3.35018
3.32247
3.41331
3.36519
3.34321
3.30513
3.35972
3.35613
3.32638
3.32842
3.30522
3.39549
3.35824
3.41068
3.39502
3.30221
3.34425
3.39795
3.31944
3.33487
3.34784
3.41092
3.37065
3.29416
3.34352
3.31292
3.33564
3.32725
3.29509
3.32881
3.33485
3.37432
3.34389
3.35363
3.32412
3.32913
3.36176
3.33466
3.41812
3.37548
3.3196
3.31771
3.35416
3.35408
3.34659
3.37522
3.33561
3.34963
3.31349
3.36459
3.34509
3.34481
3.33143
3.36172
3.30617
3.29128
3.35113
3.34785
3.36069
3.29008
3.33402
3.34992
3.27858
3.35465
3.31408
3.289
3.31988
3.308
3.402
3.34946
3.3299
3.35526
3.30268
3.33034
3.3461
3.36137
3.34975
3.33624
3.3848
3.35799
3.31525
3.28135
3.33884
3.3219
3.28153
3.35528
3.32179
3.35664
3.33323
3.31969
3.31267
3.32529
3.31584
3.34824
3.3457
3.27451
3.32822
3.34572
3.322
3.30802
3.32543
3.32185
3.34722
3.3097
3.41764
3.29716
3.3415
3.32661
3.29285
3.30614
3.35301
3.32088
3.34671
3.32062
3.36995
3.3356
3.31949
3.33636
3.33634
3.3108
3.3483
3.33704
3.29511
3.32145
3.29629
3.28523
3.31819
3.35482
3.29212
3.30295
3.37787
3.35683
3.34248
3.322
3.32036
3.34501
3.31625
3.27348
3.2871
3.35638
3.3127
3.27688
3.30629
3.34676
3.3825
3.31329
3.31032
3.33673
3.32305
3.31946
3.37719
3.34747
3.40625
3.34917
3.27713
3.33056
3.33686
3.31545
3.37553
3.33314
3.36866
3.33555
3.36659
3.33
3.33793
3.34262
3.34239
3.30274
3.31536
3.33633
3.31778
3.35927
3.29229
3.34066
3.26388
3.30976
3.33302
3.36158
3.31823
3.32692
3.36522
3.33565
3.34535
3.34327
3.34319
3.28136
3.30066
3.26002
3.33893
3.32555
3.32892
3.32999
3.41595
3.35919
3.35814
3.34917
3.32999
3.37722
3.33642
3.31057
3.37656
3.31206
3.36419
3.3535
3.37517
3.36338
3.32691
3.33843
3.35548
3.3286
3.31566
3.29627
3.32958
3.34694
3.31894
3.32522
3.39557
3.39162
3.32525
3.33026
3.31937
3.37767
3.28051
3.36228
3.33414
3.41207
3.31447
3.35248
3.30988
3.32509
3.33982
3.30468
3.32264
3.28438
3.38773
3.33781
3.3265
3.29044
3.30071
3.31976
3.33802
3.37438
3.34076
3.32075
3.31007
3.36091
3.38306
3.3012
3.32248
3.34879
3.33729
3.377
3.34217
3.30576
3.39368
3.30113
3.33307
3.32266
3.29553
3.3458
3.32788
3.30178
3.37547
3.37337
3.32779
3.28134
3.35532
3.33784
3.32273
3.30009
3.3306
3.35075
3.29238
3.32399
3.30791
3.31603
3.32594
3.2856
3.35434
3.34721
3.38813
3.29622
3.34515
3.34183
3.35017
3.35167
3.29783
3.38242
3.30998
3.29008
3.33724
3.30197
3.2941
3.35936
3.34623
3.32363
3.33686
3.31994
3.35847
3.33335
3.32503
3.33339
3.34139
3.3322
3.34
3.33286
3.2888
3.32234
3.33707
3.30942
3.32473
3.28129
3.34178
3.29497
3.30361
3.32624
3.31728
3.35115
3.31487
3.30712
3.28669
3.36942
3.30003
3.3325
3.31234
3.28711
3.3216
3.31535
3.32482
3.32858
SCALARS cell_perimeter float
LOOKUP_TABLE default
6.92835
6.94
6.96651
7.19133
7.1235
6.82097
7.07913
7.64355
6.93209
6.92982
7.38792
7.00119
6.7972
7.2432
7.04115
6.79167
7.17098
6.96851
6.92303
6.97438
6.942
7.26828
7.23707
7.57332
7.59382
6.95598
7.95586
7.15283
6.90178
7.06651
6.94872
7.04425
8.17466
7.03368
7.13405
7.33102
7.88172
7.51537
7.8207
7.63315
8.26111
8.6501
8.1773
7.75081
7.37908
9.5715
8.00004
7.63172
8.03342
7.64614
8.10865
8.42385
7.77812
8.06474
7.66894
7.21317
7.4329
7.38681
8.80508
7.32191
7.72094
9.6743
8.57747
7.03546
7.14789
7.23909
6.8997
7.09067
7.18218
6.86382
7.7691
7.07285
7.16826
7.07995
7.24129
7.21527
7.7799
7.26801
6.93588
7.86758
8.21019
6.78965
7.02263
7.85067
7.47238
7.97317
6.8214
7.97287
7.09019
6.99539
7.79216
7.31255
7.64663
7.12674
7.92515
7.9595
7.35607
6.94032
8.21112
7.18605
7.16618
6.93925
7.10721
8.03688
7.20467
7.02778
6.85153
7.50631
7.30883
8.57111
8.61834
8.53387
10.1041
7.21252
7.2347
7.05367
6.91689
7.36725
8.23341
7.19428
7.62315
7.29033
8.90634
7.15482
7.26679
8.61551
7.30129
7.17934
7.6984
7.02311
7.28382
7.77375
8.44025
7.3091
7.29127
7.05031
7.05644
8.27783
6.95822
7.36067
8.18317
6.90594
7.5682
7.5493
7.4459
7.23032
7.18083
9.1917
6.97675
7.33266
7.30321
8.23887
7.10885
7.1259
6.81141
6.839
8.00439
6.98712
7.52778
8.26286
7.75933
6.80794
10.2395
7.31544
7.17332
6.92022
7.03918
7.14155
7.4148
7.10884
9.37344
7.84415
7.18861
7.36318
7.62942
8.26312
6.99524
7.13559
6.93703
7.96179
10.8876
6.99652
6.86813
7.02424
6.92931
7.33027
6.98854
6.94174
7.81665
7.42987
9.60811
7.05915
7.18211
7.47775
6.91466
7.25266
8.48552
7.3771
7.60132
6.98326
8.47866
6.98927
7.17356
7.02106
7.04249
6.91173
10.5327
7.0739
6.904
6.88254
10.1366
6.92398
7.11621
7.00389
7.10769
7.04241
7.73304
8.38886
6.98086
6.93055
6.97277
7.01321
6.99398
9.76487
7.18748
8.67968
7.10321
7.04062
7.42362
7.05851
7.70466
7.10249
7.03881
7.39765
7.02476
7.0047
6.86162
7.61592
6.92167
6.99675
6.93009
6.92616
7.57011
7.14618
7.06585
6.92608
6.84135
7.21024
6.91852
7.00154
8.3202
8.31928
6.82809
6.96743
7.74839
7.43606
7.09585
7.2073
6.8071
7.04733
7.18691
7.67549
7.5813
7.12258
7.13465
6.93099
8.21641
8.08881
6.89782
7.01101
7.00255
7.21221
6.83841
7.43478
6.94541
8.27584
6.99044
7.50781
7.53709
6.96501
7.45456
6.89735
6.92377
8.65869
6.80382
7.32514
8.67981
7.49045
7.23107
7.09432
6.92141
7.68853
7.23849
7.85844
6.9988
7.00275
7.06945
7.08908
8.87814
6.95512
7.06408
6.9018
10.0755
7.35422
7.06428
7.06598
8.23958
7.1001
7.12211
7.63993
7.05358
7.42452
7.00398
6.82955
7.3543
7.07754
6.96142
7.22977
6.77296
7.00567
6.97407
8.28811
8.04788
7.19297
7.01071
7.08089
6.98681
7.21626
6.98413
7.08269
7.71123
7.77035
7.52391
7.04365
7.04038
6.91108
7.48599
7.3179
6.88908
7.34105
7.07941
7.16906
7.31112
8.93695
7.03244
7.13603
6.98068
6.93166
7.76281
10.3876
7.28463
6.81775
7.37604
7.0627
7.11711
7.07575
7.21631
6.88464
6.95651
6.90857
7.01997
6.99433
7.10298
7.33921
7.69338
7.29898
7.1027
6.79422
7.29645
7.00018
7.03747
7.0539
6.86652
7.12924
6.90008
7.89799
7.90855
7.05665
7.17107
6.96064
9.3556
6.91083
8.15685
7.07954
6.90385
6.73915
7.469
6.97185
6.99284
7.00693
6.96791
7.05273
6.89931
9.67768
7.04251
6.99509
7.08276
7.10656
7.106
7.05697
6.87912
7.13151
7.53976
7.00043
7.24656
7.00284
6.86812
7.19951
7.85875
7.82234
9.18635
7.07235
6.98107
8.17435
7.01855
6.95892
7.38169
6.94067
7.11026
6.98633
7.04491
6.88977
6.94983
7.17095
6.98495
7.01189
7.00106
7.38901
6.94325
6.90313
6.93995
7.01523
7.44162
6.87914
6.96862
6.98775
7.15446
7.19614
6.88164
7.04738
7.03517
7.38485
7.46033
8.31894
7.47127
6.79521
6.89319
7.12516
7.07187
7.04203
6.97616
7.04605
6.94557
6.87791
7.18137
7.15046
7.05159
7.29904
7.04994
6.97615
6.93923
7.70405
8.18107
6.84787
6.93782
6.86416
7.10029
7.15706
7.44288
7.0248
6.95392
6.91892
7.37388
6.81219
6.96848
6.91384
7.35557
7.32271
7.08069
7.02686
6.97456
6.95857
6.92234
7.06498
6.90638
7.2193
7.92645
6.94695
7.0604
6.97852
7.16182
7.39628
6.86735
6.97677
7.37606
8.17132
7.04459
6.98631
6.97435
8.53985
7.08078
7.01037
7.61536
6.95848
7.04316
7.0109
7.07238
7.15621
7.10434
7.06558
6.94028
7.0635
7.0001
6.91611
7.09202
6.97562
7.53684
6.91121
7.27232
6.9893
7.19635
7.10296
7.39791
7.14982
7.4071
7.0398
6.95513
6.94595
7.08816
7.12725
7.19144
7.23184
8.35904
6.80796
6.92043
6.88921
7.05179
7.01018
7.65204
7.10782
6.9113
6.94376
7.07746
6.95212
7.21433
7.18715
7.03492
7.07698
7.16662
7.27257
6.99726
6.94042
7.10468
6.91981
7.06699
7.30762
6.97978
7.01604
7.55724
7.12647
7.82737
7.08697
7.07703
7.34089
7.10639
6.95181
7.18423
7.1439
6.92112
7.05643
6.93162
6.98184
7.05656
6.92505
7.40366
7.10949
7.48313
7.02129
6.89313
6.95164
7.95098
7.38936
6.94148
7.16007
7.16987
7.1367
6.90733
6.86969
7.02237
7.23611
7.17159
7.30176
7.03159
7.29057
7.25842
7.14926
6.96999
6.93864
6.96552
6.88099
7.04285
7.39352
7.21863
7.05771
7.14433
7.65093