# vtk DataFile Version 3.0
2D-vertex
ASCII
DATASET UNSTRUCTURED_GRID

POINTS 552 float
0.143753 -2.64758 0
2.60054 -2.53197 0
3.02525 -1.59977 0
2.04231 -0.493607 0
-0.228074 -0.262882 0
-0.998373 -1.72414 0
3.55784 -1.58654 0
4.16453 -0.756716 0
3.29873 0.788783 0
2.22912 0.514223 0
1.10061 1.80401 0
-0.583619 2.35011 0
-1.39329 1.10488 0
-1.5629 1.06879 0
-2.1283 -0.569739 0
-1.64666 -1.47148 0
4.73478 -0.938983 0
5.58704 -0.0938734 0
3.82256 1.50616 0
3.53365 1.44774 0
2.70414 2.4363 0
1.61569 2.3931 0
1.11538 5.95489 0
0.176283 5.95571 0
-0.666886 4.14433 0
-1.94004 3.31018 0
-1.91352 1.43239 0
-3.22404 1.17621 0
-3.75906 0.168219 0
-3.47645 -0.550574 0
6.6596 -0.128611 0
7.31521 0.570818 0
7.19346 1.89003 0
5.0296 3.13554 0
5.52914 3.6974 0
3.22934 5.08956 0
2.54324 6.3481 0
1.5988 6.54492 0
0.68801 9.55886 0
-0.979687 9.62813 0
-0.677407 6.79054 0
-2.28361 5.9187 0
-3.33234 4.45422 0
-4.32488 4.51128 0
-5.07305 3.15221 0
-6.4984 2.87133 0
-6.8023 1.82008 0
-5.30771 0.437185 0
7.65122 2.50193 0
7.35724 3.54811 0
6.63589 3.99022 0
6.01568 6.05333 0
3.69428 7.3093 0
3.65167 8.09706 0
2.21217 9.65454 0
2.77292 10.3574 0
-2.00653 10.9225 0
-1.94972 10.1808 0
-3.1579 8.96129 0
-2.85856 6.90333 0
-4.55614 7.27623 0
-5.92794 6.01478 0
-7.87541 4.59091 0
-7.73784 4.05117 0
8.31248 3.92455 0
8.3126 3.92705 0
6.95975 5.99953 0
7.43894 7.19257 0
6.27524 8.46868 0
6.52002 9.14048 0
5.86873 10.1175 0
5.70133 10.4763 0
-2.81155 13.174 0
-3.00731 12.9654 0
-6.37037 10.4527 0
-5.67806 9.58847 0
-6.38147 8.32503 0
-6.28038 8.11749 0
-8.86387 5.11908 0
-8.71262 4.75584 0
9.86294 4.15976 0
10.2305 5.10656 0
9.49341 6.13464 0
10.6816 6.49817 0
10.4846 8.03829 0
10.7302 8.77557 0
10.1836 13.5706 0
11.102 15.8929 0
-10.0543 15.9347 0
-10.0138 15.7588 0
-10.3512 9.76268 0
-10.0329 9.19902 0
-10.3628 8.5871 0
-9.60417 7.46398 0
-10.3821 6.22 0
-9.92086 5.23145 0
3.46301 -4.41578 0
4.68074 -3.90345 0
5.52613 -3.52449 0
7.92714 -2.00447 0
9.2673 -0.610449 0
10.6807 1.67182 0
10.776 1.83033 0
11.5234 2.87654 0
12.3941 4.77301 0
12.6399 5.54801 0
12.9954 9.07591 0
13.5442 16.3601 0
-13.3065 16.5134 0
-12.8827 9.71832 0
-12.7889 8.41615 0
-12.3946 5.86322 0
-11.5169 3.92427 0
-10.6594 2.82557 0
-10.056 2.10101 0
-9.15612 0.775531 0
-7.24566 -1.3714 0
-5.19426 -2.79093 0
-3.11848 -3.81321 0
-0.13905 -4.68921 0
12.905 10.8152 0
9.08572 10.887 0
-13.1571 12.399 0
-10.4333 13.0662 0
-0.43592 3.82196 0
0.90403 3.89278 0
-1.94743 5.86792 0
-1.26257 4.14916 0
4.53278 5.25068 0
4.96412 6.16403 0
0.376745 11.0384 0
0.161441 10.0701 0
-1.21172 8.08356 0
-2.47097 7.80667 0
6.01491 6.0557 0
5.28333 8.00558 0
4.31819 8.52827 0
4.337 9.75757 0
2.35855 11.2358 0
2.35644 11.2344 0
-2.67116 11.2595 0
-4.19573 9.73676 0
-3.74912 9.00054 0
-4.67166 7.85167 0
1.19896 1.17381 0
-0.281449 0.21013 0
6.37622 2.15966 0
5.23452 0.643618 0
5.0276 3.13703 0
3.02181 3.99027 0
-9.26818 11.3295 0
-6.18073 11.0812 0
3.01931 3.99026 0
1.57576 4.70404 0
-9.58734 7.40211 0
-8.16134 6.77847 0
-1.0312 -1.73994 0
-1.50486 -4.41856 0
6.63874 32.8358 0
7.4754 34.3407 0
0.96424 -2.3246 0
1.11054 -0.876432 0
2.58867 8.51803 0
1.37889 7.48168 0
8.89689 10.3926 0
5.86965 10.1199 0
9.54218 21.7784 0
0.309565 12.7494 0
-2.92323 -0.816744 0
-3.67855 -3.56489 0
-4.51662 2.21949 0
-5.42175 1.06006 0
-5.82925 -2.40539 0
-4.72419 0.0338556 0
0.401576 7.99803 0
-0.580066 7.55928 0
9.45195 5.97657 0
7.81152 5.24457 0
5.3847 -0.619127 0
7.03902 -2.66701 0
1.41018 -4.7965 0
1.49775 -2.7708 0
-6.37559 1.19401 0
-7.98985 -0.672587 0
-5.54872 4.91683 0
-6.86963 3.71162 0
7.46903 2.01569 0
9.86899 0.248049 0
-12.6507 7.23677 0
-9.61301 7.44917 0
13.0283 7.57838 0
10.9391 7.51129 0
-2.92847 3.51822 0
-3.85134 2.19642 0
-9.63558 1.52781 0
-6.8625 3.15126 0
-3.71822 6.72686 0
-4.49087 4.81693 0
-7.0067 6.94896 0
-6.58337 6.11969 0
8.45869 7.33164 0
8.70716 7.85197 0
-0.84793 12.6172 0
-0.718472 11.7783 0
12.909 10.8244 0
10.436 12.1184 0
10.3358 14.5732 0
2.1809 11.581 0
8.1765 9.0486 0
9.51894 9.81147 0
-7.56181 8.44865 0
-7.91023 9.24423 0
-2.34813 14.8132 0
0.985623 13.9536 0
-10.3307 13.621 0
-4.35265 12.9029 0
9.51799 9.81379 0
12.9129 10.1989 0
-11.0468 14.9519 0
-13.4178 15.4622 0
-12.9359 10.7688 0
-9.50738 10.9376 0
12.9498 19.17 0
10.5138 17.629 0
8.75647 11.3366 0
6.65634 11.491 0
-9.50726 10.9351 0
-7.59361 10.1545 0
2.62997 14.4968 0
4.45031 13.0143 0
-4.70669 11.481 0
-3.87349 10.6951 0
5.2439 12.8022 0
4.31782 11.2973 0
13.2837 12.5878 0
10.6727 12.7311 0
-2.99948 14.4367 0
-4.89819 13.8676 0
-8.30454 28.8018 0
0.124538 15.3697 0
-6.83017 11.7225 0
-4.80703 13.2352 0
-13.01 11.515 0
-9.76846 12.0153 0
6.6491 16.7549 0
8.61946 15.2689 0
-0.980565 14.1762 0
-0.622694 12.846 0
-10.6785 19.4393 0
-13.3304 19.3303 0
3.99023 33.5632 0
2.5625 15.4418 0
-3.25648 16.8062 0
-10.4768 19.8686 0
-11.0365 14.1398 0
-13.361 13.5304 0
-6.98732 15.4469 0
-6.49482 14.2217 0
-6.70629 12.3265 0
-7.61201 13.375 0
13.5233 14.5007 0
11.0635 15.1293 0
-10.8568 21.4878 0
-13.0839 22.5572 0
6.4185 12.5145 0
5.2456 12.8003 0
10.4728 16.5113 0
8.66247 16.0202 0
4.26652 13.9894 0
7.08656 16.3835 0
-2.14082 15.9375 0
-0.400433 16.2568 0
13.0481 24.5514 0
10.7189 24.265 0
0.482499 15.3042 0
1.56183 16.0967 0
10.2703 26.5998 0
4.40342 16.1325 0
13.393 13.5404 0
10.4992 13.9871 0
-8.78915 15.1229 0
-8.89318 14.2231 0
-9.66819 12.315 0
-7.63316 13.021 0
-10.3092 18.8552 0
-6.64623 16.9744 0
2.0226 34.2882 0
1.81818 36.0603 0
1.98829 13.8285 0
2.74269 12.3808 0
-4.13796 16.0414 0
-4.16479 15.1583 0
-13.2998 18.1959 0
-10.6379 18.2625 0
0.0608491 17.5605 0
-0.198041 17.4106 0
8.12909 13.5947 0
7.7078 14.4052 0
9.02396 11.9241 0
7.96669 13.2311 0
-11.0982 20.6685 0
-13.3436 20.5838 0
-2.66547 16.7378 0
-1.68214 17.9969 0
1.81122 17.0386 0
3.79771 17.1005 0
6.7047 14.506 0
6.48764 14.925 0
-7.82923 18.5867 0
-7.61465 18.8495 0
-9.60576 16.4481 0
-6.88267 16.3809 0
4.35692 16.0221 0
5.04304 14.956 0
-10.0128 23.3515 0
-3.93895 18.2243 0
12.8995 26.0349 0
11.0146 25.7398 0
-10.7853 29.783 0
-8.81163 28.492 0
9.11076 18.0038 0
8.08911 16.618 0
12.7647 20.8614 0
9.97252 20.9692 0
4.6518 18.3632 0
6.54689 19.3664 0
1.60449 19.2519 0
3.96573 18.7508 0
-0.482388 25.4089 0
-2.84278 23.8896 0
-2.73284 22.1819 0
-4.50477 20.0508 0
-6.63582 15.9679 0
-4.36159 15.0728 0
-9.63473 21.737 0
-8.40766 20.1372 0
7.06217 24.4608 0
7.66212 21.4334 0
-13.2786 17.1311 0
-9.9717 17.1547 0
-9.95288 17.1894 0
-7.72007 17.8345 0
0.0539835 19.4067 0
0.288953 19.1201 0
7.22364 31.8726 0
2.26481 22.3658 0
10.3311 32.1411 0
9.19723 30.9693 0
-12.6931 25.9302 0
-10.7655 25.2145 0
-5.7055 17.2007 0
-5.42141 18.088 0
8.75148 18.6087 0
7.52696 18.3427 0
1.72549 17.1628 0
2.2601 18.2404 0
10.7475 17.1093 0
13.4088 17.4044 0
12.7865 19.7009 0
9.09883 18.3425 0
-9.95869 25.7602 0
-4.47504 20.1566 0
-2.0136 18.8474 0
-3.58708 18.8911 0
3.67813 22.9346 0
4.47476 22.3657 0
-6.05006 18.8729 0
-5.75733 19.737 0
4.68119 18.0651 0
6.6554 17.2608 0
-1.53527 21.887 0
-0.0570813 23.3253 0
2.12403 28.4294 0
6.43469 30.3986 0
-3.55079 33.7758 0
-3.9653 35.0093 0
-0.100721 33.9257 0
-1.762 24.9466 0
-13.0313 23.9175 0
-10.8693 24.1191 0
-1.64634 19.3613 0
-3.39332 20.5975 0
-7.22612 21.894 0
-5.68331 21.6537 0
9.04078 28.5572 0
7.25207 29.254 0
5.43633 21.0623 0
7.03376 21.8696 0
10.5238 24.4884 0
8.27274 23.8618 0
12.9452 22.6788 0
10.6026 23.3773 0
-8.97265 27.4487 0
-3.40811 21.7211 0
11.6155 30.124 0
9.92116 29.6168 0
2.68066 20.4092 0
4.00398 19.7175 0
-12.259 27.1758 0
-10.1159 26.4788 0
-0.604095 26.9571 0
3.81259 23.9846 0
0.518285 20.6437 0
2.09131 21.1325 0
-8.37426 20.2284 0
-7.00242 20.7287 0
9.23661 19.8299 0
7.62014 20.24 0
-1.16118 21.1036 0
-1.94196 20.0717 0
12.759 19.9161 0
9.23822 19.828 0
-1.91232 24.3007 0
-0.836501 23.1746 0
-5.45372 22.1193 0
-4.40064 22.3763 0
-3.66945 24.3305 0
-4.33079 23.8863 0
-13.062 22.7169 0
-10.1155 22.9685 0
5.0344 24.5039 0
5.95841 23.8657 0
0.0970569 29.2564 0
1.78907 34.0533 0
-7.69278 23.1501 0
-7.00051 23.9796 0
0.222678 34.3909 0
-0.150617 35.875 0
-5.61968 29.3299 0
-4.15299 29.9538 0
9.70165 22.7083 0
8.35349 23.2088 0
12.6219 27.5023 0
10.4766 27.108 0
5.9177 23.0833 0
7.05374 22.3736 0
2.66699 20.7577 0
4.43264 21.7174 0
3.06391 24.5872 0
3.47839 27.9748 0
5.40392 20.4624 0
6.57942 19.6708 0
1.65906 22.8897 0
1.94232 24.1996 0
12.8272 21.7816 0
9.85042 22.1929 0
-1.50431 31.2486 0
-1.5612 29.5313 0
-7.46394 30.8805 0
-8.46902 32.4977 0
0.0963763 21.1539 0
0.613389 22.6022 0
-6.41757 23.8965 0
-5.82959 24.5141 0
-9.44633 22.1779 0
-7.22643 21.8915 0
6.7742 27.5705 0
8.46199 26.2305 0
-11.3951 28.8516 0
-9.60175 27.3189 0
-5.96046 25.3202 0
-5.15657 25.9715 0
2.85668 30.2284 0
5.88174 30.3766 0
-5.40738 31.6512 0
-4.8534 30.1595 0
6.57969 27.9294 0
4.62691 27.0852 0
2.83622 27.7873 0
1.39557 26.1011 0
-3.88218 25.5925 0
-3.4077 26.117 0
3.54961 34.1564 0
4.08887 35.7776 0
0.318693 24.7602 0
1.08343 24.9964 0
-8.06941 25.5743 0
-7.85995 26.3091 0
2.7474 32.2562 0
2.04548 32.6308 0
-2.5925 26.0443 0
-1.85392 27.187 0
8.41435 30.9934 0
7.75282 29.3515 0
-1.65483 34.1081 0
-1.83734 35.5857 0
-2.58523 33.4766 0
-2.46929 31.7705 0
8.86602 26.0295 0
9.09033 24.5735 0
-7.34015 28.4675 0
-7.48004 26.3997 0
9.12249 28.218 0
8.26305 27.3678 0
-0.508015 31.2581 0
0.269369 29.9524 0
-9.09496 23.7325 0
-9.01514 25.2398 0
8.94145 33.3708 0
7.91334 31.8714 0
11.9624 29.3358 0
10.038 28.0036 0
5.83257 32.7984 0
5.17534 31.4939 0
-0.72188 28.9222 0
-0.53566 27.0257 0
-4.87791 32.457 0
-5.78585 34.1847 0
3.26122 25.6968 0
2.50108 26.3804 0
5.22183 29.2608 0
5.76021 28.0105 0
5.18872 25.7488 0
4.56728 26.2184 0
-3.62602 28.2124 0
-2.38084 28.1555 0
7.09004 25.4169 0
6.19553 26.1156 0
4.02088 29.2946 0
3.68282 30.0051 0
-6.88999 30.7961 0
-6.40748 29.4902 0
5.19449 33.7158 0
5.82329 35.1683 0
-5.11502 27.8751 0
-4.02659 27.6984 0
-4.48184 32.4562 0
-3.42626 31.2933 0
2.2629 29.8309 0
1.43267 30.3569 0
-9.99876 30.939 0
-8.42746 29.9401 0
-7.1263 33.4086 0
-6.20393 31.7242 0
0.546783 32.4091 0
1.3812 32.1348 0
1.24317 28.1621 0
0.761991 26.9018 0
3.67199 32.6179 0
4.60837 31.4619 0
-1.11583 33.7433 0
-1.17405 31.4794 0
-5.55574 27.3513 0
-6.96658 27.5174 0
-3.47011 30.444 0
-1.95747 29.375 0
-0.491714 25.5276 0
1.06003 26.5251 0
-0.993979 35.7303 0
-0.62095 33.8322 0
7.07146 28.8982 0
8.61646 27.7174 0

CELLS 828 2484
2 160 0
2 1 2
2 2 3
2 161 4
2 4 5
2 5 0
2 2 6
2 6 7
2 7 8
2 8 9
2 3 9
2 9 144
2 10 11
2 11 12
2 145 4
2 12 13
2 13 14
2 15 14
2 5 156
2 7 16
2 17 178
2 147 17
2 19 18
2 19 8
2 20 19
2 21 20
2 10 21
2 153 125
2 23 22
2 24 23
2 24 124
2 127 24
2 26 25
2 26 13
2 27 26
2 28 27
2 29 28
2 14 168
2 30 17
2 30 31
2 32 31
2 32 146
2 18 33
2 33 148
2 128 35
2 20 152
2 35 36
2 37 36
2 22 37
2 37 163
2 38 131
2 175 40
2 40 23
2 126 40
2 42 41
2 25 192
2 43 42
2 43 44
2 193 27
2 45 44
2 46 45
2 47 171
2 173 47
2 48 186
2 48 49
2 49 50
2 34 50
2 50 51
2 52 129
2 36 52
2 52 53
2 53 162
2 54 38
2 55 54
2 139 55
2 57 56
2 39 57
2 58 57
2 59 133
2 41 59
2 59 196
2 61 60
2 197 43
2 199 61
2 62 63
2 195 185
2 49 64
2 64 65
2 177 65
2 51 134
2 67 66
2 68 67
2 53 136
2 69 68
2 70 69
2 55 137
2 165 70
2 233 71
2 73 72
2 140 56
2 215 73
2 74 75
2 58 142
2 76 75
2 77 76
2 60 143
2 77 198
2 78 79
2 79 62
2 65 80
2 80 81
2 81 176
2 67 200
2 82 83
2 83 191
2 69 208
2 84 85
2 164 216
2 71 225
2 86 279
2 502 158
2 88 89
2 290 252
2 254 214
2 90 91
2 91 211
2 91 92
2 92 93
2 93 210
2 189 93
2 94 95
2 95 78
2 96 1
2 96 97
2 97 6
2 97 98
2 16 98
2 179 99
2 99 30
2 31 100
2 187 101
2 101 48
2 101 102
2 102 64
2 102 103
2 103 80
2 81 104
2 104 105
2 83 105
2 105 190
2 85 106
2 217 120
2 87 107
2 108 88
2 255 122
2 109 90
2 109 110
2 92 110
2 110 188
2 111 94
2 95 112
2 112 113
2 113 79
2 113 114
2 63 114
2 114 194
2 115 46
2 116 47
2 116 172
2 117 29
2 169 118
2 118 15
2 157 119
2 0 119
2 119 180
2 99 100
2 103 104
2 249 292
2 111 112
2 183 116
2 120 204
2 121 224
2 120 121
2 122 242
2 123 282
2 122 123
2 124 11
2 125 21
2 124 125
2 41 126
2 127 25
2 126 127
2 34 128
2 129 51
2 128 129
2 203 130
2 131 39
2 130 131
2 39 132
2 133 58
2 132 133
2 134 66
2 135 68
2 134 135
2 136 135
2 137 70
2 136 137
2 207 138
2 130 139
2 139 138
2 140 73
2 75 141
2 231 140
2 142 141
2 143 77
2 142 143
2 144 10
2 145 12
2 144 145
2 146 33
2 147 18
2 146 147
2 148 34
2 149 35
2 148 149
2 221 150
2 151 74
2 150 240
2 152 149
2 153 22
2 152 153
2 94 154
2 155 78
2 154 155
2 156 15
2 157 118
2 156 157
2 266 87
2 357 222
2 158 159
2 181 160
2 161 3
2 160 161
2 162 54
2 163 174
2 162 163
2 164 121
2 71 165
2 165 164
2 445 166
2 247 167
2 337 166
2 168 29
2 169 117
2 168 169
2 44 170
2 171 182
2 170 171
2 172 117
2 173 28
2 172 173
2 174 38
2 175 132
2 174 175
2 176 82
2 177 66
2 176 177
2 178 16
2 179 98
2 178 179
2 180 96
2 181 1
2 180 181
2 182 46
2 183 115
2 182 183
2 61 184
2 185 63
2 184 185
2 186 32
2 187 100
2 186 187
2 188 111
2 189 154
2 188 189
2 190 106
2 191 84
2 190 191
2 192 42
2 193 170
2 192 193
2 194 115
2 195 45
2 194 195
2 196 60
2 197 184
2 196 197
2 198 155
2 199 62
2 198 199
2 200 82
2 201 84
2 200 201
2 72 202
2 203 56
2 202 203
2 204 234
2 205 235
2 205 204
2 261 206
2 167 207
2 206 245
2 208 201
2 209 85
2 208 209
2 210 76
2 227 74
2 210 211
2 236 72
2 213 167
2 239 274
2 214 123
2 230 215
2 241 237
2 216 209
2 217 106
2 216 217
2 89 218
2 219 108
2 218 219
2 220 109
2 221 226
2 220 221
2 222 358
2 320 223
2 223 222
2 224 298
2 264 225
2 225 224
2 226 90
2 227 211
2 226 227
2 228 288
2 289 229
2 228 268
2 151 230
2 231 141
2 230 231
2 229 232
2 233 138
2 265 233
2 234 278
2 235 86
2 235 234
2 236 212
2 257 237
2 291 236
2 248 284
2 246 239
2 271 295
2 240 151
2 241 215
2 240 258
2 242 220
2 243 150
2 242 243
2 277 244
2 232 306
2 245 267
2 212 246
2 247 202
2 246 247
2 253 248
2 301 249
2 249 248
2 531 448
2 251 228
2 294 354
2 252 302
2 300 253
2 335 309
2 218 254
2 255 219
2 254 255
2 280 256
2 259 281
2 256 257
2 258 241
2 259 257
2 283 259
2 260 107
2 261 87
2 260 261
2 319 238
2 449 530
2 263 262
2 299 264
2 232 265
2 265 264
2 223 356
2 244 269
2 267 266
2 268 229
2 321 267
2 313 307
2 212 270
2 271 239
2 270 271
2 272 316
2 273 388
2 272 273
2 274 213
2 275 251
2 274 275
2 276 433
2 277 312
2 488 276
2 278 260
2 279 206
2 278 279
2 89 280
2 281 214
2 280 281
2 282 243
2 283 258
2 282 283
2 284 293
2 311 285
2 308 284
2 472 286
2 473 287
2 287 286
2 288 213
2 289 207
2 288 289
2 285 350
2 333 291
2 291 290
2 292 338
2 293 340
2 293 292
2 403 345
2 330 370
2 295 294
2 86 296
2 297 245
2 296 297
2 298 205
2 299 296
2 298 299
2 262 300
2 301 263
2 300 301
2 302 270
2 303 295
2 302 303
2 304 275
2 305 277
2 304 305
2 306 297
2 307 269
2 306 307
2 308 341
2 315 252
2 309 308
2 88 310
2 311 332
2 310 311
2 312 251
2 313 268
2 312 313
2 314 419
2 309 366
2 315 363
2 316 432
2 317 276
2 317 316
2 318 458
2 319 392
2 318 319
2 359 320
2 269 321
2 321 320
2 322 444
2 166 323
2 323 322
2 324 368
2 369 353
2 324 325
2 343 326
2 327 324
2 326 355
2 478 462
2 416 329
2 377 328
2 330 329
2 314 496
2 361 381
2 332 256
2 333 237
2 332 333
2 262 334
2 335 253
2 334 404
2 421 336
2 441 407
2 435 431
2 338 108
2 339 310
2 338 339
2 340 339
2 341 285
2 340 341
2 303 362
2 343 294
2 342 343
2 344 158
2 328 474
2 373 344
2 346 498
2 482 347
2 347 346
2 348 378
2 349 379
2 348 349
2 350 290
2 351 315
2 350 351
2 411 352
2 325 353
2 353 352
2 354 304
2 355 327
2 354 355
2 356 266
2 357 107
2 356 357
2 358 410
2 352 359
2 359 358
2 360 349
2 331 361
2 497 360
2 362 380
2 331 363
2 363 362
2 345 364
2 437 365
2 365 364
2 366 351
2 367 331
2 366 367
2 368 305
2 369 244
2 368 369
2 408 450
2 371 451
2 371 413
2 422 504
2 466 456
2 468 439
2 376 426
2 485 375
2 374 375
2 484 486
2 412 377
2 534 376
2 378 418
2 379 314
2 379 378
2 380 342
2 393 330
2 409 380
2 455 382
2 383 361
2 382 383
2 395 384
2 385 373
2 384 483
2 386 440
2 337 387
2 387 386
2 388 317
2 336 389
2 489 388
2 390 272
2 391 273
2 390 391
2 392 459
2 381 393
2 415 417
2 394 346
2 395 347
2 394 395
2 326 396
2 397 327
2 396 397
2 398 348
2 399 360
2 398 399
2 400 546
2 364 401
2 475 469
2 342 402
2 403 436
2 402 403
2 404 335
2 405 367
2 404 405
2 323 406
2 407 337
2 406 407
2 370 408
2 409 381
2 408 409
2 410 322
2 411 406
2 410 411
2 329 412
2 413 370
2 412 413
2 383 414
2 415 393
2 414 415
2 428 521
2 392 477
2 417 416
2 418 263
2 419 454
2 418 419
2 401 420
2 421 434
2 420 421
2 372 536
2 286 423
2 495 529
2 382 424
2 425 452
2 424 425
2 423 426
2 427 287
2 426 427
2 524 428
2 429 514
2 465 429
2 391 430
2 431 389
2 430 431
2 432 500
2 501 433
2 433 432
2 434 365
2 435 387
2 434 435
2 436 396
2 437 386
2 436 437
2 438 401
2 373 463
2 508 438
2 440 397
2 441 325
2 440 441
2 345 442
2 443 438
2 442 443
2 444 390
2 445 430
2 444 445
2 446 487
2 545 447
2 447 446
2 464 506
2 507 532
2 449 448
2 450 402
2 451 442
2 450 451
2 452 414
2 453 417
2 452 453
2 454 334
2 455 405
2 454 455
2 512 420
2 336 516
2 457 493
2 458 398
2 459 399
2 458 459
2 453 460
2 461 470
2 460 461
2 372 528
2 510 463
2 463 503
2 533 464
2 465 428
2 464 465
2 385 550
2 439 467
2 466 511
2 468 372
2 547 537
2 469 509
2 470 416
2 471 480
2 470 471
2 472 250
2 523 473
2 473 472
2 474 371
2 475 443
2 474 475
2 425 476
2 491 460
2 476 477
2 250 538
2 479 423
2 478 479
2 480 377
2 481 400
2 480 481
2 499 482
2 483 385
2 482 483
2 549 376
2 427 548
2 485 484
2 486 374
2 487 527
2 486 487
2 457 488
2 489 389
2 488 489
2 238 490
2 491 477
2 543 491
2 492 384
2 456 493
2 551 492
2 541 494
2 495 422
2 494 495
2 496 424
2 497 476
2 496 497
2 498 159
2 499 344
2 498 499
2 500 394
2 501 492
2 500 501
2 522 250
2 462 519
2 503 502
2 504 447
2 505 400
2 504 505
2 374 526
2 507 375
2 506 507
2 513 508
2 509 468
2 508 509
2 439 518
2 511 467
2 510 511
2 517 512
2 513 467
2 512 513
2 525 514
2 515 481
2 514 515
2 516 457
2 517 456
2 516 517
2 518 510
2 539 503
2 518 519
2 448 520
2 521 490
2 520 521
2 502 522
2 523 159
2 522 523
2 461 542
2 525 471
2 524 525
2 526 506
2 527 544
2 526 527
2 528 462
2 535 479
2 528 529
2 530 318
2 531 238
2 530 531
2 532 449
2 533 520
2 532 533
2 494 534
2 535 529
2 534 535
2 536 422
2 537 505
2 536 537
2 538 478
2 539 519
2 538 539
2 484 540
2 541 446
2 540 541
2 542 524
2 543 490
2 542 543
2 544 429
2 545 515
2 544 545
2 546 328
2 547 469
2 546 547
2 548 485
2 549 540
2 548 549
2 550 466
2 551 493
2 550 551

CELL_TYPES 828
3
3
3
3
3
3
3
3
3
3
3
3
3
3
3
3
3
3
3
3
3
3
3
3
3
3
3
3
3
3
3
3
3
3
3
3
3
3
3
3
3
3
3
3
3
3
3
3
3
3
3
3
3
3
3
3
3
3
3
3
3
3
3
3
3
3
3
3
3
3
3
3
3
3
3
3
3
3
3
3
3
3
3
3
3
3
3
3
3
3
3
3
3
3
3
3
3
3
3
3
3
3
3
3
3
3
3
3
3
3
3
3
3
3
3
3
3
3
3
3
3
3
3
3
3
3
3
3
3
3
3
3
3
3
3
3
3
3
3
3
3
3
3
3
3
3
3
3
3
3
3
3
3
3
3
3
3
3
3
3
3
3
3
3
3
3
3
3
3
3
3
3
3
3
3
3
3
3
3
3
3
3
3
3
3
3
3
3
3
3
3
3
3
3
3
3
3
3
3
3
3
3
3
3
3
3
3
3
3
3
3
3
3
3
3
3
3
3
3
3
3
3
3
3
3
3
3
3
3
3
3
3
3
3
3
3
3
3
3
3
3
3
3
3
3
3
3
3
3
3
3
3
3
3
3
3
3
3
3
3
3
3
3
3
3
3
3
3
3
3
3
3
3
3
3
3
3
3
3
3
3
3
3
3
3
3
3
3
3
3
3
3
3
3
3
3
3
3
3
3
3
3
3
3
3
3
3
3
3
3
3
3
3
3
3
3
3
3
3
3
3
3
3
3
3
3
3
3
3
3
3
3
3
3
3
3
3
3
3
3
3
3
3
3
3
3
3
3
3
3
3
3
3
3
3
3
3
3
3
3
3
3
3
3
3
3
3
3
3
3
3
3
3
3
3
3
3
3
3
3
3
3
3
3
3
3
3
3
3
3
3
3
3
3
3
3
3
3
3
3
3
3
3
3
3
3
3
3
3
3
3
3
3
3
3
3
3
3
3
3
3
3
3
3
3
3
3
3
3
3
3
3
3
3
3
3
3
3
3
3
3
3
3
3
3
3
3
3
3
3
3
3
3
3
3
3
3
3
3
3
3
3
3
3
3
3
3
3
3
3
3
3
3
3
3
3
3
3
3
3
3
3
3
3
3
3
3
3
3
3
3
3
3
3
3
3
3
3
3
3
3
3
3
3
3
3
3
3
3
3
3
3
3
3
3
3
3
3
3
3
3
3
3
3
3
3
3
3
3
3
3
3
3
3
3
3
3
3
3
3
3
3
3
3
3
3
3
3
3
3
3
3
3
3
3
3
3
3
3
3
3
3
3
3
3
3
3
3
3
3
3
3
3
3
3
3
3
3
3
3
3
3
3
3
3
3
3
3
3
3
3
3
3
3
3
3
3
3
3
3
3
3
3
3
3
3
3
3
3
3
3
3
3
3
3
3
3
3
3
3
3
3
3
3
3
3
3
3
3
3
3
3
3
3
3
3
3
3
3
3
3
3
3
3
3
3
3
3
3
3
3
3
3
3
3
3
3
3
3
3
3
3
3
3
3
3
3
3
3
3
3
3
3
3
3
3
3
3
3
3
3
3
3
3
3
3
3
3
3
3
3
3
3
3
3
3
3
3
3
3
3
3
3
3
3
3
3
3
3
3
3
3
3
3
3
3
3
3
3
3
3
3
3
3
3
3
3
3
3
3
3
3
3
3
3
3
3
3
3
3
3
3
3
3
3
3
3
3
3
3
3
3
3
3
3
3
3
3
3
3
3
3
3
3
3
3
3
3
3
3
3
3
3
3
3
3
3
3
3
3
3
3
3
3
3
3
3
3
3
3
3
3
3
3
3
3
3
3
3
3
3
3
3
3
3
3
3
3
3
3
3
3
3
3
3
3
3
3
3
3
3
3
3
3
3
3
3
3

CELL_DATA 828
SCALARS current_Length float
LOOKUP_TABLE default
0.88177
1.02439
1.47979
1.47253
1.65186
1.46874
0.532755
1.02795
1.77149
1.10429
1.025
1.22323
1.77055
1.48531
0.476014
0.173412
1.73333
1.02231
0.0364328
0.59867
0.562879
0.817413
0.294758
0.699574
1.29048
1.08931
0.78252
1.05326
0.939098
1.99801
0.396571
0.595705
1.87798
0.505116
1.33532
1.14118
0.772357
0.832422
1.07312
0.95866
1.32482
0.860566
2.02776
0.0024974
1.31336
1.5856
1.43341
0.964732
0.76278
0.96222
0.733919
0.774876
1.19404
1.56978
1.80126
1.01009
0.994183
1.5514
1.19764
1.45276
1.09429
0.633232
0.709339
0.51925
1.08671
0.846053
1.14483
2.15431
1.71001
1.4996
0.788915
1.14331
1.52716
0.899129
0.970918
0.743832
1.11644
1.71668
0.98298
1.1402
0.877589
1.86363
0.347813
0.663774
0.556997
0.560415
1.02674
0.00250004
1.40959
0.00249009
1.28568
1.72704
0.79385
0.715014
1.17424
1.67515
0.00251789
1.60877
0.286085
0.745172
1.3468
1.10729
0.592524
1.44605
0.230848
0.586922
1.37587
0.393471
0.853302
1.56771
1.01564
1.16749
1.02919
1.24254
1.04534
1.65903
0.7771
0.848975
1.39344
0.522624
0.807034
0.180494
1.16704
0.875956
0.647296
2.12317
0.695185
1.35534
2.26734
0.0172437
1.09087
1.06295
2.07186
1.32112
2.57467
0.926438
2.70391
1.10802
2.26395
2.28167
1.63891
3.14117
0.184959
3.2334
1.28574
2.09853
2.18919
0.813035
2.17662
2.06718
2.28503
0.616336
2.48649
3.3033
1.14964
2.53187
1.30554
2.43208
1.18745
2.0439
2.06305
1.39377
2.74148
0.942847
3.02938
0.710884
2.57518
2.65079
1.75367
2.82313
0.61265
2.76585
1.39237
2.06112
1.55294
1.93373
2.08679
1.13484
2.12835
1.02086
0.0100635
0.557248
3.81995
0.89614
1.07228
2.80429
1.47924
1.65997
1.34182
0.339993
1.07835
1.85018
1.84537
1.05737
1.01008
1.32174
1.22373
0.991938
1.5619
1.34351
1.28933
0.946506
1.09468
2.0826
1.09759
1.57346
1.22944
0.388274
1.98937
0.00250302
1.7387
1.48974
1.32818
0.861085
1.63053
1.47342
0.637826
1.42715
1.76643
1.66305
1.65458
1.89785
0.752037
1.1187
2.17973
0.459089
0.65657
2.46949
0.00249916
1.33288
1.61038
1.42445
1.80197
1.5564
0.671456
1.72343
2.72017
0.882202
1.8243
1.72183
0.695512
1.00734
1.45554
1.19725
1.10533
1.59299
0.529247
0.394181
3.0395
0.516505
0.937256
1.91144
0.613918
1.70188
2.85006
1.08608
0.963202
1.4709
0.742864
0.974436
2.67789
1.5869
0.820889
1.07523
0.16341
1.13819
1.79634
0.724371
1.739
2.6326
2.08784
1.12835
2.02759
0.757663
1.85936
2.4678
1.1616
0.932246
1.7881
0.302869
1.04836
2.98067
1.39722
0.0536083
3.04509
1.49789
0.695923
2.09024
1.01942
0.665678
1.61209
0.892079
0.459266
3.21334
1.00196
1.06256
2.06029
1.16717
2.00163
0.931073
1.58223
1.78718
0.576616
2.04103
1.54646
0.848805
1.8028
0.656866
2.79103
0.915833
2.20609
1.85198
1.30901
1.59379
1.54406
1.1868
1.25904
0.868523
1.27658
1.38102
0.363902
0.564165
1.46525
0.638962
0.00251309
1.12599
3.41664
1.31077
1.05704
2.42528
1.05178
0.00251993
3.43268
0.555448
1.45222
2.88246
0.645581
1.05078
2.1058
1.44459
0.963812
2.06672
0.926491
1.82134
1.71341
1.5273
1.01111
1.14536
0.82145
1.96024
1.76628
0.958786
0.971571
2.61489
0.752335
1.63542
1.37066
0.691002
1.62654
1.17139
0.912658
0.562923
0.616617
0.749953
0.848849
3.27987
2.33034
2.24432
0.752603
1.50863
0.321066
1.37751
0.474275
1.2536
2.65422
1.34641
0.947467
1.71147
0.594963
1.01291
1.51229
0.812129
1.93262
2.40308
1.83073
1.53646
1.32056
2.10544
1.40177
0.354669
1.85946
0.764654
2.53882
0.594185
2.18397
2.47046
1.70599
0.0025121
1.2072
0.56984
0.573846
1.8758
0.99223
0.828315
1.44493
1.14326
1.03084
1.76944
1.4909
0.296594
2.34682
1.44128
1.1959
1.33904
0.548491
0.119768
1.51572
0.969177
0.608437
2.9281
1.37988
1.55854
0.905764
0.316075
1.15816
2.154
0.677802
0.638834
2.4945
1.53268
2.28823
1.78383
1.01044
0.977382
1.63243
0.967561
0.214574
0.883469
1.06497
1.27309
2.66273
1.24542
1.23335
0.299129
2.05463
1.25579
0.913515
1.42536
0.398143
1.68111
0.854098
1.99037
2.24699
0.956922
1.59571
1.59763
0.97431
1.14191
1.98746
1.00815
1.57666
0.471898
0.760103
1.57378
0.339269
0.681747
0.481194
2.72392
1.8859
1.23992
1.26779
0.396436
1.56476
0.753951
1.49343
1.13734
1.90788
1.11325
1.05572
2.3584
0.338962
1.02962
1.72162
0.92225
0.916561
2.79428
0.299585
1.38929
2.14424
1.32212
0.787985
1.20539
2.03073
0.936914
1.36059
1.71125
0.99379
1.16815
0.628446
1.31925
2.44404
1.24725
2.08652
1.96587
1.25396
1.18622
1.54496
0.618384
0.795726
3.30699
0.0394567
1.3758
2.32413
0.912784
1.57622
0.370626
1.1269
1.03081
1.67188
1.85563
0.783249
1.63065
2.0409
1.10028
2.0562
1.94967
1.48871
0.931673
1.31285
1.41718
1.25306
0.150956
1.78036
1.20294
0.658082
1.05304
2.67754
0.216941
0.437606
3.92991
0.974102
0.109831
1.07757
0.631648
1.47889
1.57408
1.5235
0.649623
0.978941
1.00562
1.29129
0.912294
1.30803
0.506023
2.13173
1.25857
0.986147
0.793861
0.884497
0.408175
0.66898
0.566619
2.20462
1.30132
1.12443
0.663073
1.649
1.20098
1.15012
2.17141
1.70093
0.817506
0.76947
0.00250973
1.9239
1.56141
1.37763
1.40647
1.51323
0.600852
0.764902
1.78983
1.34425
1.35066
1.43597
1.87542
0.895198
2.44448
0.642351
1.12368
1.51159
2.39133
1.53407
1.76867
1.5803
0.967413
1.4932
1.31909
0.735581
2.2536
1.55291
1.05858
1.14791
1.32123
0.686933
1.64724
0.0971662
1.59181
1.46023
1.35629
1.19418
1.66769
0.868152
1.54368
1.29397
0.945357
0.00250154
3.52184
1.01724
1.46499
1.55743
0.519124
1.1893
1.08399
0.803945
1.59268
0.796675
0.16117
1.03576
2.9573
1.32757
0.783514
1.12297
0.920519
0.331238
1.23162
1.33996
0.588833
1.08039
1.60237
1.97749
1.53031
1.5398
1.81938
0.729987
1.1222
0.657943
1.43808
1.94849
0.997152
2.18119
1.61152
0.504437
1.33945
0.348828
1.19854
2.0096
0.961015
0.553391
1.12705
1.58578
0.306109
1.4172
0.80085
1.18667
1.34019
0.904981
0.536496
3.00506
1.09705
0.425992
1.71825
0.964158
1.54893
1.90408
0.662081
1.08447
1.5378
2.02173
1.62495
0.852705
0.479485
1.18417
2.2383
1.25445
0.956489
1.1546
1.88536
0.984891
2.35908
0.816688
1.32958
1.03464
1.40841
1.29633
1.32184
0.799883
1.1294
1.59122
1.48554
1.45275
0.823484
0.958899
1.02101
1.14024
1.27972
0.818436
0.707312
0.738977
1.83832
1.70846
1.48326
1.17162
0.8004
1.91981
1.86397
0.764125
0.997394
1.44545
0.795615
1.37649
1.27081
1.36065
1.01094
0.510157
1.77008
1.03135
1.71136
1.48883
1.01084
1.06933
1.71008
0.451264
1.08394
1.47317
1.02068
0.390543
1.23003
0.348846
1.50259
1.20892
0.701846
0.717043
1.51958
1.51833
1.00315
1.50938
1.75786
0.6897
1.81802
0.861183
0.940281
2.34059
1.2139
0.855782
1.46072
1.03707
0.0969406
1.90559
1.61499
1.99859
1.95181
1.40634
1.44628
1.02229
1.42696
1.4631
1.36133
1.07154
0.868849
0.778888
0.65169
1.10256
1.24648
1.59504
1.56578
1.13505
1.20143
0.567878
0.786865
0.580124
1.38413
1.39221
1.11749
1.84778
1.58273
1.43636
1.69818
1.10267
0.396069
0.850504
1.57052
0.714534
0.829004
0.982819
1.39828
1.14495
1.86194
1.62253
1.15411
1.92045
1.56125
1.77863
0.878352
1.58463
1.30356
1.34906
0.992839
1.72591
1.4877
0.650799
0.402907
2.26468
0.68454
1.02089
1.42058
0.840561
1.29085
1.85224
3.29267
3.27538
3.31336
166
232
3.2525
3.35188
0
0

SCALARS edge_force float
LOOKUP_TABLE default
0.5
0.5
0.5
0.5
0.5
0.5
0.5
0.5
0.5
0.5
0.5
0.5
0.5
0.5
0.5
0.5
0.5
0.5
0.5
0.5
0.5
0.5
0.5
0.5
0.5
0.5
0.5
0.5
0.5
0.5
0.5
0.5
0.5
0.5
0.5
0.5
0.5
0.5
0.5
0.5
0.5
0.5
0.5
0.5
0.5
0.5
0.5
0.5
0.5
0.5
0.5
0.5
0.5
0.5
0.5
0.5
0.5
0.5
0.5
0.5
0.5
0.5
0.5
0.5
0.5
0.5
0.5
0.5
0.5
0.5
0.5
0.5
0.5
0.5
0.5
0.5
0.5
0.5
0.5
0.5
0.5
0.5
0.5
0.5
0.5
0.5
0.5
0.5
0.5
0.5
0.5
0.5
0.5
0.5
0.5
0.5
0.5
0.5
0.5
0.5
0.5
0.5
0.5
0.5
0.5
0.5
0.5
0.5
0.5
0.5
0.5
0.5
0.5
0.5
0.5
0.5
0.5
0.5
0.5
0.5
0.5
0.5
0.5
0.5
0.5
0.5
0.5
0.5
0.5
0.5
0.5
0.5
0.5
2
0.5
2
0.5
2
0.5
0.5
2
0.5
2
0.5
2
0.5
0.5
2
0.5
2
0.5
2
0.5
0.5
2
0.5
2
0.5
2
0.5
0.5
2
0.5
2
0.5
2
0.5
0.5
2
0.5
2
0.5
2
0.5
2
2
2
2
2
2
2
0.5
0.5
2
0.5
0.5
0.5
0.5
0.5
0.5
0.5
0.5
0.5
0.5
0.5
0.5
0.5
0.5
0.5
0.5
0.5
0.5
0.5
0.5
0.5
0.5
0.5
0.5
0.5
0.5
0.5
0.5
0.5
0.5
0.5
0.5
0.5
0.5
0.5
0.5
0.5
0.5
0.5
0.5
0.5
0.5
0.5
0.5
0.5
0.5
0.5
0.5
0.5
0.5
0.5
2
0.5
0.5
2
0.5
0.5
0.5
0.5
0.5
0.5
0.5
0.5
0.5
0.5
0.5
0.5
0.5
0.5
2
0.5
0.5
0.5
0.5
2
0.5
0.5
0.5
0.5
0.5
0.5
0.5
0.5
0.5
2
0.5
2
0.5
0.5
0.5
2
0.5
0.5
0.5
0.5
0.5
2
0.5
2
0.5
0.5
2
0.5
0.5
0.5
0.5
0.5
2
0.5
0.5
0.5
0.5
0.5
0.5
0.5
0.5
0.5
0.5
0.5
0.5
0.5
0.5
2
0.5
0.5
0.5
0.5
0.5
0.5
0.5
0.5
0.5
0.5
0.5
0.5
0.5
0.5
0.5
0.5
0.5
0.5
2
0.5
0.5
2
0.5
2
0.5
0.5
2
0.5
0.5
0.5
0.5
0.5
0.5
0.5
0.5
0.5
0.5
0.5
0.5
0.5
0.5
0.5
0.5
0.5
2
0.5
0.5
0.5
0.5
0.5
0.5
0.5
0.5
0.5
0.5
0.5
2
0.5
0.5
0.5
0.5
0.5
0.5
0.5
0.5
0.5
2
0.5
0.5
0.5
0.5
0.5
0.5
0.5
0.5
2
0.5
0.5
0.5
0.5
0.5
0.5
0.5
2
0.5
0.5
0.5
2
0.5
0.5
0.5
0.5
0.5
0.5
0.5
0.5
0.5
0.5
0.5
0.5
0.5
2
0.5
0.5
0.5
0.5
0.5
0.5
0.5
0.5
2
0.5
0.5
0.5
0.5
0.5
0.5
0.5
0.5
0.5
0.5
0.5
0.5
2
0.5
0.5
0.5
0.5
0.5
0.5
0.5
2
0.5
0.5
0.5
0.5
0.5
0.5
0.5
0.5
0.5
0.5
0.5
0.5
2
0.5
0.5
0.5
0.5
0.5
0.5
0.5
0.5
0.5
0.5
0.5
0.5
0.5
0.5
0.5
0.5
0.5
0.5
0.5
0.5
0.5
0.5
2
0.5
0.5
2
0.5
0.5
0.5
0.5
0.5
2
0.5
0.5
0.5
0.5
0.5
0.5
0.5
0.5
0.5
0.5
0.5
0.5
0.5
0.5
0.5
0.5
0.5
0.5
0.5
0.5
0.5
0.5
0.5
2
0.5
0.5
0.5
0.5
0.5
0.5
0.5
0.5
0.5
0.5
0.5
2
0.5
0.5
2
0.5
0.5
0.5
0.5
0.5
0.5
0.5
0.5
0.5
0.5
0.5
0.5
2
0.5
2
0.5
0.5
0.5
0.5
0.5
0.5
0.5
0.5
0.5
0.5
0.5
0.5
0.5
0.5
0.5
0.5
0.5
0.5
0.5
0.5
0.5
0.5
0.5
0.5
2
0.5
0.5
0.5
0.5
2
0.5
0.5
0.5
0.5
0.5
0.5
0.5
0.5
0.5
0.5
0.5
0.5
0.5
0.5
0.5
0.5
0.5
2
0.5
0.5
0.5
0.5
0.5
2
0.5
0.5
0.5
0.5
0.5
2
0.5
0.5
0.5
0.5
0.5
0.5
0.5
0.5
0.5
0.5
0.5
0.5
0.5
0.5
0.5
0.5
0.5
2
0.5
0.5
0.5
0.5
0.5
0.5
0.5
0.5
0.5
0.5
0.5
2
0.5
0.5
0.5
0.5
0.5
0.5
0.5
0.5
0.5
0.5
0.5
0.5
2
0.5
0.5
0.5
0.5
0.5
0.5
0.5
2
0.5
0.5
0.5
0.5
0.5
0.5
0.5
0.5
0.5
0.5
0.5
0.5
0.5
0.5
0.5
0.5
0.5
2
0.5
0.5
0.5
0.5
0.5
0.5
2
0.5
0.5
0.5
0.5
0.5
0.5
0.5
0.5
0.5
0.5
0.5
0.5
0.5
2
0.5
0.5
0.5
0.5
0.5
0.5
0.5
0.5
0.5
0.5
0.5
0.5
0.5
0.5
0.5
0.5
0.5
0.5
0.5
0.5
0.5
2
0.5
0.5
0.5
0.5
0.5
0.5
0.5
0.5
0.5
0.5
0.5
0.5
0.5
0.5
0.5
0.5
0.5
2
0.5
0.5
0.5
0.5
0.5
0.5
0.5
0.5
0.5
0.5
0.5
0.5
0.5
0.5
0.5
0.5
0.5
0.5
0.5
2
0.5
0.5
2
0.5
0.5
0.5
0.5
0.5
0.5
0.5
0.5
0.5
2
0.5
0.5
0.5
0.5
0.5
0.5
0.5
0.5
0.5
0.5
0.5
0.5
0.5
0.5
0.5
0.5
0.5
0.5
0.5
0.5
0.5
0.5
0.5
2
0.5
0.5
0.5
0.5
0.5
0.5
0.5
0.5
0.5
0.5
2
0.5
0.5
2
0.5
0.5
0.5
0.5
0.5
0.5
0.5
0.5
0.5
0.5
0.5
0.5
0.5
0.5
0.5
0.5
0.5
0.5
0.5
0.5
0
0
0
0
0
0
0
0
0
