# vtk DataFile Version 2.0
2D-vertex
ASCII
DATASET UNSTRUCTURED_GRID
POINTS 344 float
0.293488 -2.01914 0
2.86879 -1.80007 0
3.24905 -0.892027 0
2.26163 0.151051 0
-0.128982 0.325533 0
-0.869657 -1.08764 0
3.85346 -0.8549 0
4.42792 0.00775343 0
3.55102 1.42978 0
2.40944 1.09798 0
1.22777 2.25711 0
-0.545593 2.81538 0
-1.34069 1.58648 0
-1.59508 1.53059 0
-2.10278 0.0274836 0
-1.62051 -0.837297 0
5.02048 -0.144166 0
5.91334 0.779572 0
4.12129 2.16025 0
3.75722 2.07182 0
2.95378 2.9625 0
1.75784 2.88225 0
1.20513 6.16117 0
0.0638035 6.1086 0
-0.642489 4.37023 0
-2.01849 3.65282 0
-1.99117 1.93032 0
-3.37028 1.65649 0
-3.84339 0.769064 0
-3.55508 0.0657347 0
7.01643 0.807179 0
7.69342 1.63509 0
7.45517 2.9143 0
5.30257 3.85139 0
5.83582 4.48692 0
3.43007 5.55861 0
2.74456 6.63446 0
1.66534 6.78028 0
0.534598 9.45886 0
-1.21401 9.40913 0
-0.796552 6.89619 0
-2.5933 6.09599 0
-3.53391 4.81729 0
-4.662 4.90314 0
-5.33335 3.75393 0
-6.79522 3.51505 0
-7.07837 2.58362 0
-5.48479 1.09284 0
7.97385 3.69885 0
7.65626 4.59222 0
7.008 4.89525 0
6.27491 6.85341 0
3.85293 7.75205 0
3.74331 8.43313 0
2.20516 9.68296 0
2.77145 10.5377 0
-2.30414 10.6511 0
-2.28379 10.0542 0
-3.44316 9.01316 0
-3.14489 7.10217 0
-4.96824 7.63605 0
-6.29663 6.57296 0
-8.27124 5.44307 0
-8.15554 4.80586 0
8.61204 5.10276 0
8.63023 5.17942 0
7.26781 6.97447 0
7.56244 8.35364 0
6.38467 9.2837 0
6.549 10.1382 0
5.87865 10.8504 0
5.92626 11.2549 0
-3.00316 12.9489 0
-3.16666 12.8193 0
-6.75396 11.2487 0
-6.10314 10.0661 0
-6.85053 9.08563 0
-6.7066 8.67614 0
-9.21486 6.18905 0
-9.05443 5.66992 0
10.0918 5.57245 0
10.3863 6.6929 0
9.65568 7.69617 0
10.6801 8.16163 0
10.3456 9.7883 0
10.5384 10.7094 0
8.8795 15.899 0
7.86548 19.0688 0
-7.7176 18.4244 0
-7.87761 17.9206 0
-10.4944 11.478 0
-10.1825 10.6595 0
-10.5769 10.1076 0
-9.84963 8.78228 0
-10.5929 7.55394 0
-10.1804 6.38945 0
3.75311 -3.6008 0
5.00286 -3.02862 0
5.90138 -2.58222 0
8.32091 -0.882663 0
9.61334 0.636602 0
10.908 3.05094 0
11.0643 3.35857 0
11.7593 4.5555 0
12.4488 6.60016 0
12.6242 7.51114 0
12.4958 11.2477 0
9.09002 20.5396 0
-9.54746 20.0749 0
-12.512 11.7953 0
-12.6439 10.2255 0
-12.5065 7.39113 0
-11.7885 5.31293 0
-10.9806 4.07262 0
-10.3373 3.18357 0
-9.31331 1.59982 0
-7.3251 -0.644072 0
-5.16863 -2.11257 0
-2.99553 -3.13996 0
0.0593317 -3.97209 0
11.9233 13.5154 0
9.0485 12.704 0
-11.8457 15.5444 0
-9.77177 15.199 0
-0.443716 4.12039 0
1.05637 4.25671 0
-2.0429 6.00157 0
-1.42749 4.36263 0
4.84179 5.82622 0
5.18323 6.80252 0
0.168449 10.7685 0
0.0197548 9.90894 0
-1.42561 8.05519 0
-2.81323 7.78526 0
6.27441 6.85585 0
5.42041 8.65731 0
4.45427 9.02426 0
4.30636 10.1655 0
2.39817 11.1896 0
2.39644 11.1878 0
-3.07655 11.1249 0
-4.63257 10.0127 0
-4.22057 9.13826 0
-5.05516 8.25696 0
1.3207 1.74275 0
-0.17984 0.689948 0
6.63999 3.07828 0
5.58295 1.37773 0
5.30034 3.85252 0
3.25875 4.48788 0
-9.23584 12.8848 0
-6.48437 11.7511 0
3.2268 4.47114 0
1.66901 5.08056 0
-9.75425 8.56639 0
-8.34966 7.74521 0
-0.937154 -1.11984 0
-1.35794 -3.71736 0
1.62868 22.0575 0
1.77663 24.1713 0
1.15783 -1.65856 0
1.26468 -0.286236 0
2.61039 8.74738 0
1.43185 7.53838 0
8.91967 11.8709 0
5.99989 11.1464 0
4.72091 20.5908 0
0.306666 12.3352 0
-2.92362 -0.228928 0
-3.62743 -2.87268 0
-4.77046 2.74941 0
-5.60222 1.7137 0
-5.88157 -1.6891 0
-4.82432 0.636845 0
0.354206 8.02239 0
-0.732671 7.49312 0
9.61273 7.38438 0
8.02564 6.4673 0
5.73059 0.247139 0
7.39548 -1.64686 0
1.67253 -4.04647 0
1.70189 -2.08759 0
-6.59211 1.8621 0
-8.13044 0.112678 0
-5.99025 5.42809 0
-7.25052 4.39469 0
7.78536 3.1063 0
10.1853 1.58005 0
-12.637 8.83325 0
-9.85148 8.78059 0
12.756 9.64335 0
10.8294 9.34126 0
-3.1481 3.89857 0
-3.99945 2.70612 0
-9.83407 2.44051 0
-7.25734 3.88725 0
-4.06541 6.96487 0
-4.84697 5.26471 0
-7.38923 7.7818 0
-6.97328 6.74289 0
8.53909 8.6611 0
8.75373 9.39445 0
-1.05641 12.2061 0
-0.961634 11.4938 0
11.8594 14.0145 0
9.63654 14.3101 0
8.40514 17.1892 0
2.27066 11.3852 0
8.08298 10.3518 0
9.34088 11.5658 0
-7.99964 9.39293 0
-8.27247 10.4249 0
-2.50436 14.5878 0
0.798197 13.5175 0
-9.26266 15.929 0
-4.49235 13.0244 0
9.34142 11.5751 0
12.1438 12.622 0
-8.99512 17.7505 0
-10.4371 18.9909 0
-12.2827 13.175 0
-9.54061 12.5624 0
7.80707 21.6146 0
6.74893 20.0478 0
8.68409 13.0028 0
6.67405 12.5924 0
-9.51037 12.44 0
-7.83337 11.1979 0
2.30668 14.4387 0
4.32202 13.4384 0
-5.08501 11.8331 0
-4.27334 10.7474 0
5.00568 13.4423 0
4.51112 11.6785 0
11.5005 16.0611 0
9.61014 15.3862 0
-2.98062 14.4085 0
-4.82597 14.2178 0
-0.783755 21.791 0
-0.149037 14.839 0
-7.07897 12.7044 0
-4.91974 13.5482 0
-12.0913 14.2312 0
-9.59887 13.8393 0
4.46452 18.0538 0
6.9121 16.889 0
-1.15965 13.8058 0
-0.83212 12.419 0
-5.24058 21.1999 0
-6.34336 22.9318 0
1.13455 21.8125 0
1.92178 15.4793 0
-2.89874 17.2254 0
-4.64096 21.2654 0
-9.59326 16.5988 0
-11.4468 17.0606 0
-6.0347 16.6098 0
-6.11158 15.0352 0
-6.81485 13.2213 0
-7.28504 14.7142 0
10.3885 18.795 0
8.64139 18.0308 0
-2.65733 22.3755 0
-2.40903 24.2224 0
6.17903 13.4706 0
5.00762 13.4407 0
7.29252 19.0762 0
6.40164 17.7229 0
3.82654 14.4214 0
5.1235 17.8588 0
-2.04871 15.8818 0
-0.694333 15.915 0
5.40347 23.1802 0
4.41053 21.6517 0
0.139673 14.7975 0
1.03125 15.7526 0
2.36479 21.6476 0
3.14845 16.9232 0
11.011 17.4261 0
8.9898 16.6513 0
-7.31554 17.0115 0
-8.06368 15.8805 0
-9.32229 14.2155 0
-7.50551 14.212 0
-5.78709 20.1396 0
-4.93877 18.0049 0
0.173123 22.4365 0
0.191801 24.2696 0
1.81096 13.573 0
2.77617 12.4026 0
-3.45488 16.9149 0
-3.82008 15.248 0
-7.4669 22.1606 0
-6.23248 20.1629 0
0.230477 17.6399 0
-0.172512 17.4885 0
7.31867 15.1719 0
6.56641 15.7574 0
8.76803 13.7924 0
7.31515 14.6021 0
-4.14612 22.3076 0
-4.76154 23.7635 0
-2.44863 17.0225 0
-1.00241 18.0539 0
0.930094 17.118 0
2.01071 17.6278 0
5.79013 15.5108 0
5.16098 16.0498 0
-4.78187 18.9018 0
-3.79419 19.2706 0
-6.88624 18.7422 0
-5.49543 17.7668 0
3.16742 16.4567 0
4.26943 15.7031 0
-2.09659 21.2372 0
-2.93853 18.7178 0
3.31028 23.9488 0
3.08996 22.1311 0
-1.38978 24.2463 0
-1.21534 21.9687 0
5.60164 19.9956 0
5.29799 18.0045 0
6.64174 22.4223 0
5.33256 20.4886 0
2.23573 18.6741 0
3.92263 19.0216 0
0.816846 19.4929 0
1.59397 19.5398 0
0.558774 19.8867 0
-0.341349 19.9464 0
-1.10849 19.199 0
-1.80594 19.4767 0
-5.5749 16.8525 0
-3.94501 15.2288 0
-2.21565 21.276 0
-3.67359 20.3305 0
2.49637 20.6895 0
4.05867 20.0422 0
-8.84178 20.8866 0
-6.8922 19.5178 0
-6.76911 19.6382 0
-4.87335 18.3788 0
-1.09494 19.0527 0
0.547593 18.642 0
CELLS 173 1148
5 0 160 161 4 5
6 9 3 2 6 7 8
6 161 3 9 144 145 4
8 15 156 5 4 145 12 13 14
8 7 16 178 17 147 18 19 8
7 20 21 10 144 9 8 19
6 125 153 22 23 24 124
8 25 26 13 12 11 124 24 127
7 28 29 168 14 13 26 27
6 147 17 30 31 32 146
7 18 33 148 149 152 20 19
5 20 152 153 125 21
7 22 37 163 174 175 40 23
5 24 23 40 126 127
5 26 25 192 193 27
7 28 27 193 170 171 47 173
9 33 146 32 186 48 49 50 34 148
5 52 36 35 128 129
6 36 52 53 162 163 37
6 38 54 55 139 130 131
7 40 175 132 133 59 41 126
6 42 41 59 196 197 43
7 44 43 197 184 185 195 45
8 49 64 65 177 66 134 51 50
7 51 134 135 136 53 52 129
6 53 136 137 55 54 162
8 55 137 70 165 71 233 138 139
7 57 56 140 231 141 142 58
7 59 133 58 142 143 60 196
6 61 60 143 77 198 199
5 65 80 81 176 177
6 67 200 201 208 69 68
7 69 208 209 216 164 165 70
5 71 225 264 265 233
8 73 72 236 291 333 237 241 215
5 211 91 92 93 210
8 77 76 210 93 189 154 155 198
5 97 6 2 1 96
5 98 16 7 6 97
5 99 30 17 178 179
4 101 48 186 187
5 102 64 49 48 101
5 103 80 65 64 102
6 83 82 176 81 104 105
4 105 190 191 83
5 217 120 121 164 216
5 122 123 214 254 255
5 110 92 91 90 109
5 93 92 110 188 189
5 113 79 78 95 112
5 114 63 62 79 113
5 114 194 195 185 63
4 173 47 116 172
5 118 15 14 168 169
5 119 0 5 156 157
5 180 181 160 0 119
4 30 99 100 31
4 80 103 104 81
5 249 292 293 284 248
4 94 111 112 95
5 47 171 182 183 116
6 120 204 205 298 224 121
5 122 242 243 282 123
5 124 11 10 21 125
6 126 41 42 192 25 127
5 128 34 50 51 129
6 130 203 56 57 39 131
5 132 39 57 58 133
5 134 66 67 68 135
6 136 135 68 69 70 137
8 138 207 167 247 202 203 130 139
5 140 73 215 230 231
6 142 141 75 76 77 143
5 144 10 11 12 145
4 146 33 18 147
5 148 34 128 35 149
7 150 221 226 227 74 151 240
7 152 149 35 36 37 22 153
5 154 94 95 78 155
4 156 15 118 157
5 222 223 266 87 107
6 160 181 1 2 3 161
5 162 54 38 174 163
6 164 121 224 225 71 165
6 166 273 317 276 336 337
4 168 29 117 169
6 170 44 45 46 182 171
5 172 117 29 28 173
6 174 38 131 39 132 175
6 176 82 200 67 66 177
4 178 16 98 179
4 180 96 1 181
4 182 46 115 183
6 184 61 199 62 63 185
5 186 32 31 100 187
5 188 111 94 154 189
5 190 106 85 84 191
6 192 42 43 44 170 193
5 194 115 46 45 195
5 196 60 61 184 197
6 198 155 78 79 62 199
6 200 82 83 191 84 201
6 202 72 73 140 56 203
4 204 234 235 205
6 206 261 87 266 267 245
5 208 201 84 85 209
6 210 76 75 74 227 211
6 247 167 213 274 239 246
6 214 123 282 283 259 281
5 216 209 85 106 217
5 218 89 88 108 219
5 220 109 90 226 221
5 222 322 323 320 223
5 224 298 299 264 225
5 226 90 91 211 227
5 228 288 289 229 268
6 230 151 74 75 141 231
7 232 229 289 207 138 233 265
5 234 278 279 86 235
7 236 212 270 302 252 290 291
6 253 248 284 308 309 335
6 240 151 230 215 241 258
5 242 220 221 150 243
6 244 277 312 313 307 269
6 246 212 236 72 202 247
5 248 253 300 301 249
7 295 271 239 274 275 304 294
7 252 302 303 342 330 331 315
4 254 218 219 255
5 256 280 281 259 257
6 258 241 237 257 259 283
4 260 107 87 261
5 318 319 238 286 287
7 264 299 296 297 306 232 265
5 266 223 320 321 267
6 268 229 232 306 307 313
5 270 212 246 239 271
4 272 316 317 273
6 274 213 288 228 251 275
7 276 158 250 328 326 327 336
5 278 260 261 206 279
6 280 89 218 254 214 281
6 282 243 150 240 258 283
5 284 293 340 341 308
5 286 250 158 159 287
5 288 213 167 207 289
6 290 285 311 332 333 291
5 292 338 339 340 293
6 328 329 330 342 343 326
6 296 86 279 206 245 297
6 298 205 235 86 296 299
4 300 262 263 301
5 302 270 271 295 303
6 304 275 251 312 277 305
7 306 297 245 267 321 269 307
7 308 341 285 290 252 315 309
7 310 88 89 280 256 332 311
5 312 251 228 268 313
6 314 334 335 309 315 331
5 316 159 158 276 317
6 318 263 262 334 314 319
8 320 323 166 337 325 244 269 321
5 322 272 273 166 323
5 324 305 277 244 325
7 326 343 294 304 305 324 327
5 328 250 286 238 329
6 330 329 238 319 314 331
5 332 256 257 237 333
5 334 262 300 253 335
5 336 327 324 325 337
5 338 108 88 310 339
6 340 339 310 311 285 341
5 342 303 295 294 343
CELL_TYPES 173
7
7
7
7
7
7
7
7
7
7
7
7
7
7
7
7
7
7
7
7
7
7
7
7
7
7
7
7
7
7
7
7
7
7
7
7
7
7
7
7
7
7
7
7
7
7
7
7
7
7
7
7
7
7
7
7
7
7
7
7
7
7
7
7
7
7
7
7
7
7
7
7
7
7
7
7
7
7
7
7
7
7
7
7
7
7
7
7
7
7
7
7
7
7
7
7
7
7
7
7
7
7
7
7
7
7
7
7
7
7
7
7
7
7
7
7
7
7
7
7
7
7
7
7
7
7
7
7
7
7
7
7
7
7
7
7
7
7
7
7
7
7
7
7
7
7
7
7
7
7
7
7
7
7
7
7
7
7
7
7
7
7
7
7
7
7
7
7
7
7
7
7
7
CELL_DATA 173
SCALARS cell_division_count float
LOOKUP_TABLE default
1
0
1
0
0
0
1
0
0
1
1
1
1
1
1
1
0
1
1
1
1
1
1
0
1
1
1
1
1
1
1
1
2
4
3
1
1
0
0
1
1
0
0
0
1
2
3
0
1
0
0
1
1
1
1
1
0
0
3
0
1
2
3
1
1
1
1
1
1
1
2
2
1
1
1
1
2
1
1
1
2
1
1
2
7
1
1
1
1
1
1
1
1
1
1
1
1
1
1
1
1
1
2
3
5
2
1
3
5
2
2
2
4
3
2
4
2
3
5
5
6
3
3
6
3
4
6
8
3
5
4
4
5
5
6
6
5
4
5
7
5
5
5
7
4
4
6
4
8
5
3
4
6
6
6
6
6
6
8
4
5
6
4
6
7
7
8
6
8
7
4
7
8
SCALARS cell_time float
LOOKUP_TABLE default
801
2.22229e+13
821
4.48239e+13
2.67348e+11
1.25633e+10
831
2.68223e+09
9.19769e+11
821
821
811
781
831
751
791
1.22681e+06
831
801
831
831
731
771
24613.4
831
831
831
831
831
721
781
721
681
421
571
671
811
1.00108e+18
2.94533e+15
781
771
105913
2175.76
887.338
761
661
461
878.006
771
3529.01
1146.18
751
791
801
811
781
1.12104e+13
21996.3
251
2867.96
781
701
521
831
831
831
831
831
831
831
711
591
831
821
821
821
651
811
811
811
661
801
801
661
21
801
791
791
781
781
781
781
781
771
771
771
761
751
751
731
721
721
711
581
401
681
671
521
301
661
661
661
131
241
651
271
591
581
311
271
161
541
521
151
521
241
251
81
461
311
441
441
141
251
141
171
371
151
341
111
311
311
301
1
291
271
41
21
1
251
241
241
241
231
171
161
161
151
31
151
141
141
131
121
111
111
81
41
31
21
21
1
1
SCALARS cell_area float
LOOKUP_TABLE default
3.24527
3.30251
3.29346
3.35984
3.35319
3.34338
3.32264
3.37866
3.35084
3.28133
3.33683
3.28634
3.37328
3.31459
3.30707
3.33235
3.40298
3.28245
3.33275
3.37035
3.37967
3.33785
3.34123
3.37187
3.35271
3.36124
3.41331
3.38412
3.38034
3.32664
3.25269
3.30102
3.33856
3.30538
3.40022
3.25351
3.35088
3.25898
3.26799
3.25539
3.24691
3.28793
3.27016
3.29018
3.22927
3.3036
3.27079
3.27309
3.2695
3.25885
3.2781
3.28307
3.2244
3.26467
3.25143
3.24791
3.21567
3.22449
3.27142
3.20525
3.25458
3.31708
3.28539
3.28057
3.33599
3.29176
3.36832
3.33488
3.28456
3.35006
3.40816
3.32292
3.34646
3.28701
3.2439
3.27583
3.33141
3.34497
3.23893
3.22934
3.27069
3.26204
3.31861
3.31352
3.28089
3.23024
3.30007
3.26015
3.3549
3.28989
3.23156
3.20901
3.224
3.30607
3.26081
3.25742
3.26809
3.32513
3.27254
3.29868
3.29353
3.27208
3.36123
3.24767
3.27819
3.25595
3.32056
3.33235
3.28172
3.28513
3.27201
3.2819
3.288
3.27475
3.25289
3.2675
3.33715
3.36563
3.27721
3.35918
3.28547
3.32973
3.29063
3.29294
3.35167
3.26229
3.33259
3.30561
3.22341
3.25331
3.30647
3.22625
3.29569
3.3385
3.26682
3.30697
3.2942
3.23428
3.29888
3.31523
3.27234
3.27119
3.30575
3.33267
3.29188
3.30197
3.31924
3.24005
3.3346
3.29854
3.29116
3.22016
3.28503
3.28567
3.33527
3.3121
3.32821
3.25026
3.28348
3.28397
3.30851
3.34487
3.28411
3.25305
3.29909
3.26678
3.2941
3.27937
3.23356
3.25539
3.27908
151
4.6471e-310
SCALARS cell_perimeter float
LOOKUP_TABLE default
6.92073
6.89618
7.03537
7.08161
7.04638
6.86894
7.04708
7.34652
6.87788
6.99126
7.34692
6.97433
6.86419
7.11268
6.97371
6.75425
7.11774
6.95524
7.01021
7.28465
6.90563
7.07423
7.10386
7.30641
7.37134
6.87536
8.14434
6.8884
6.82324
6.97401
6.96531
6.87662
8.12767
7.02021
7.01658
7.12995
7.52269
7.42956
7.70266
7.52303
8.10961
8.39095
7.93879
7.51985
7.32551
8.25711
7.21744
7.24226
7.76294
7.44711
7.78147
8.0729
7.67019
7.95401
7.60325
7.17035
7.3629
7.33405
7.4031
7.28985
7.59803
8.00923
7.50986
7.03714
6.97264
7.12718
6.97789
6.97143
7.05494
6.89731
8.19726
6.97926
7.02263
7.14531
7.2679
7.15744
7.5953
7.10527
6.94374
7.78921
7.16463
6.78054
7.02258
8.03754
6.89995
7.86192
6.80564
7.84493
6.93425
6.96957
7.68758
7.29482
7.54176
6.9912
7.79458
7.70446
7.20541
6.8476
7.9528
7.03763
7.05636
6.85271
7.19886
7.40396
6.86401
6.97025
6.80922
7.02362
6.93878
7.92188
7.42761
7.75294
7.35382
7.1204
7.15236
6.99619
6.96675
7.91606
7.27486
7.11384
6.85695
7.03548
7.87107
6.99017
7.34206
7.17799
7.13481
7.02706
7.28845
6.89387
7.09532
7.29145
7.32022
7.32763
7.03528
7.13779
6.93379
7.2884
6.79889
7.08215
7.24393
6.79997
7.25755
6.95368
7.23779
7.12955
7.49779
7.5276
6.97217
6.936
6.93514
7.33138
7.00179
6.88395
6.97958
6.95458
6.9662
6.90386
7.09603
7.21385
7.62282
7.10923
7.3353
6.975
6.9376
7.10948
7.115
7.26154
6.912
6.98221
7.58757
74
4.6471e-310
SCALARS cell_frequency_modifier float
LOOKUP_TABLE default
6.31888e+16
1.39174e+13
4.56878e+12
7.30699e+12
6.11547e+11
3.31906e+10
2.65215e+07
2.00896e+09
1.04109e+12
4.69673e+11
1.03835e+09
8.4469e+08
237193
8.76821e+06
7.73164e+09
1.33939e+11
2.65594e+08
3.98062e+06
91993.1
786.012
206164
3.22922e+06
7.64361e+07
2.54245e+06
59238.9
2977.55
242.311
939.162
34632.1
109468
3.51275e+08
7082.12
290.696
77.6777
7.549
452483
13231.5
2.18254e+18
2.09689e+17
5.15223e+15
1.06613e+12
7.33675e+08
9.91264e+09
397514
3.38379e+06
82.0276
443.335
7552.48
1.06017e+06
1.71105e+09
5.14355e+08
2.06175e+09
5.34022e+15
2.80314e+17
7.01419e+18
10000
6.53861e+14
8.33074e+08
104.31
1.52183e+08
2.89347e+14
19.3565
18.1657
1.00433e+10
3.55427e+07
9.28537e+06
658.417
9900.25
161166
2176.01
104.708
120.221
4831.57
2.00783e+11
2.01362e+12
4.11785e+08
86.9507
5.35585e+06
4.33766e+07
3.83082e+18
101.805
1.01933e+17
16588.1
107.295
2.5554
1.88342e+17
1.14686e+10
1.40749e+16
10241
253634
8.31156e+16
10000
3.78734e+13
9.49256e+06
1.13489e+13
7.41384e+06
296167
4.60843e+08
1.13411e+11
2.06914e+06
1.46598e+06
501031
84.9794
1024
5.72718
213347
1284.88
15.5494
20.852
554.051
64.2841
316.771
1.08874
238.539
60337.2
3362.13
360.168
42.1024
17.0985
1.65353
1.29442
44.5055
46.0596
2.45136
15.2355
124.717
1.74148
0.91689
190.862
513.343
12.1648
116.845
1.18802
5.85824
120.552
6.95357
7.78775
141.281
10.11
0.529722
23.9842
276.241
23.8876
0.509706
1.38051
68.5166
1.54289
100.106
0.524135
2.99255
10.5103
164.872
3.93469
4.01938
1.14174
0.844218
0.878751
769.239
1.76972
2.38254
0.754791
0.418267
1.72426
158.604
1.02865
102.802
0.820245
18.0826
106.858
107.159
3.45769
1
1
SCALARS cell_area_modifier float
LOOKUP_TABLE default
100
0.661509
0.861461
0.329797
0.339623
0.372955
0.490674
0.306177
0.353671
2.32653
0.399067
1.19164
0.308943
0.536892
0.572864
0.440154
0.293059
1.9322
0.423792
0.314627
0.303461
0.389966
0.377067
0.311759
0.343029
0.323557
0.288121
0.298169
0.300792
0.470426
100
0.688129
0.381271
0.636872
0.295592
100
0.350051
100
100
100
100
1.11401
100
1.01484
100
0.648956
100
7.2766
100
100
3.93103
1.82888
100
100
100
100
100
100
100
100
100
0.520548
1.33074
2.69291
0.403778
0.93188
0.317549
0.413543
1.50661
0.357367
0.290569
0.483734
0.36114
1.15152
100
5.10448
0.451783
0.364995
100
100
100
100
0.512744
0.545455
2.49635
100
0.702259
100
0.336283
1.04587
100
100
100
0.603175
100
100
100
0.476987
9.24324
0.748359
0.840295
20.1176
0.326648
100
3.52577
100
0.497817
0.445893
2.17834
1.38462
48.8571
2.0479
1.07886
6
100
100
0.394464
0.320525
4.44156
0.333009
1.2809
0.457831
0.985591
0.883721
0.346505
100
0.434562
0.625229
100
100
0.592721
100
0.782609
0.385569
100
0.582624
0.800937
100
0.732334
0.528594
12.6667
100
0.614004
0.429109
0.907162
0.674556
0.50517
100
0.418605
0.765101
0.957983
100
1.44304
1.23466
0.408602
0.554295
0.464043
100
1.73604
1.65217
0.563427
0.368932
1.57604
100
0.716981
100
0.820144
2.92308
100
100
3.19626
1
1
SCALARS cell_Gaussian_modifier float
LOOKUP_TABLE default
6.31888e+14
2.10388e+13
5.30353e+12
2.2156e+13
1.80067e+12
8.89936e+10
5.40511e+07
6.56144e+09
2.94367e+12
2.01877e+11
2.60195e+09
7.08848e+08
767757
1.63314e+07
1.34965e+10
3.043e+11
9.06281e+08
2.06014e+06
217071
2498.23
679375
8.28078e+06
2.02712e+08
8.15516e+06
172693
9202.54
841.005
3149.76
115137
232699
3.51275e+06
10291.8
762.439
121.968
25.5386
4524.83
37798.8
2.18254e+16
2.09689e+15
5.15223e+13
1.06613e+10
6.58591e+08
9.91264e+07
391703
33837.9
126.399
4.43335
1037.91
10601.7
1.71105e+07
1.30845e+08
1.12733e+09
5.34022e+13
2.80314e+15
7.01419e+16
100
6.53861e+12
8.33074e+06
1.0431
1.52183e+06
2.89347e+12
37.1849
13.6509
3.72954e+09
8.80253e+07
9.96413e+06
2073.44
23940.1
106973
6089
360.355
248.527
13378.7
1.74364e+11
2.01362e+10
8.06713e+07
192.461
1.46738e+07
433766
3.83082e+16
1.01805
1.01933e+15
32351.5
196.707
1.02365
1.88342e+15
1.6331e+10
1.40749e+14
30453.6
242510
8.31156e+14
100
3.78734e+11
1.57377e+07
1.13489e+11
74138.4
2961.67
9.66153e+08
1.22697e+10
2.7649e+06
1.7446e+06
24905
260.156
10.24
1.62437
2133.47
2581.03
34.8726
9.5724
400.148
1.31576
154.681
1.00915
39.7565
603.372
33.6213
913.057
131.354
3.84965
4.96541
1.01056
97.2094
46.733
2.77391
43.9691
1.24717
4.00744
1.46649
1.90862
5.13343
20.5237
1.16845
1.51802
15.1938
1.20552
11.9349
9.7233
1.41281
13.8052
1.00214
1.89349
2.76241
38.9046
1.18782
1.52179
101.573
3.0542
1.00106
1.2521
3.91131
10.9713
1.64872
2.72667
3.25546
2.79426
1.52305
1.89368
7.69239
1.0194
1.44207
1.33964
1.13372
1.09405
1.58604
1.4347
1.02802
1.00012
6.18616
1.06858
1.07159
1.08179
1
1
