# vtk DataFile Version 2.0
2D-vertex
ASCII
DATASET UNSTRUCTURED_GRID
POINTS 524 float
-0.0219911 -2.54986 0
2.44095 -2.47943 0
2.88245 -1.55697 0
1.92135 -0.43358 0
-0.350463 -0.160173 0
-1.1471 -1.60406 0
3.4183 -1.55377 0
4.04025 -0.735763 0
3.20598 0.821888 0
2.12627 0.566581 0
1.0196 1.8715 0
-0.660566 2.45216 0
-1.49266 1.22438 0
-1.66788 1.19043 0
-2.25968 -0.429198 0
-1.7943 -1.33917 0
4.609 -0.929277 0
5.48072 -0.100097 0
3.7488 1.52614 0
3.45227 1.47216 0
2.64455 2.47362 0
1.54712 2.45156 0
1.11595 5.99449 0
0.152344 6.01112 0
-0.710849 4.22684 0
-2.00839 3.43006 0
-2.01517 1.56343 0
-3.33387 1.32942 0
-3.88237 0.337855 0
-3.61182 -0.385581 0
6.55443 -0.1556 0
7.22606 0.53396 0
7.12825 1.85455 0
4.98934 3.13096 0
5.50223 3.68412 0
3.22449 5.10544 0
2.56884 6.35938 0
1.60896 6.57519 0
0.725359 9.5539 0
-0.962311 9.64647 0
-0.688605 6.86024 0
-2.33234 6.0264 0
-3.39199 4.59919 0
-4.39554 4.67379 0
-5.15785 3.34245 0
-6.59001 3.08537 0
-6.90867 2.04484 0
-5.43099 0.634468 0
7.60281 2.46165 0
7.33054 3.50705 0
6.62219 3.95761 0
6.0485 6.02215 0
3.74243 7.30964 0
3.71233 8.07522 0
2.28699 9.62881 0
2.86211 10.3276 0
-1.99162 10.9354 0
-1.95122 10.2351 0
-3.1627 9.06177 0
-2.89059 7.02426 0
-4.60151 7.43741 0
-5.98207 6.2114 0
-7.95126 4.83431 0
-7.82139 4.28782 0
8.30026 3.86856 0
8.30045 3.87105 0
7.0012 5.95423 0
7.50004 7.14462 0
6.37341 8.4229 0
6.63262 9.09487 0
6.01933 10.0613 0
5.88349 10.3901 0
-2.79413 13.1941 0
-2.97359 13.0166 0
-6.40528 10.6603 0
-5.71746 9.76019 0
-6.43114 8.53811 0
-6.32584 8.31171 0
-8.93263 5.38544 0
-8.78448 5.0128 0
9.85513 4.07391 0
10.2438 5.01868 0
9.53508 6.06334 0
10.7279 6.40189 0
10.5716 7.94856 0
10.839 8.69383 0
10.3869 13.5386 0
11.2818 15.9332 0
-9.98001 16.3482 0
-9.93717 16.1234 0
-10.3858 10.0773 0
-10.0668 9.49249 0
-10.402 8.89144 0
-9.65235 7.74679 0
-10.4338 6.51528 0
-9.98478 5.51412 0
3.26667 -4.37767 0
4.49502 -3.88869 0
5.34905 -3.5257 0
7.78254 -2.05169 0
9.1515 -0.683184 0
10.612 1.56944 0
10.7113 1.72685 0
11.4838 2.76117 0
12.3957 4.64118 0
12.659 5.41342 0
13.093 8.94232 0
13.6763 16.4096 0
-13.1247 17.0225 0
-12.886 10.0719 0
-12.8099 8.75517 0
-12.4466 6.18768 0
-11.596 4.23441 0
-10.7544 3.12127 0
-10.1593 2.3834 0
-9.27389 1.03745 0
-7.39458 -1.14042 0
-5.36503 -2.59417 0
-3.30644 -3.65229 0
-0.342559 -4.58278 0
13.0311 10.755 0
9.28876 10.8146 0
-13.1111 12.8368 0
-10.4343 13.4072 0
-0.488689 3.90678 0
0.867259 3.95558 0
-1.97179 5.96483 0
-1.32585 4.24254 0
4.54373 5.24315 0
4.99036 6.14971 0
0.426493 11.0068 0
0.204117 10.0746 0
-1.21657 8.14466 0
-2.49884 7.88843 0
6.04781 6.02454 0
5.36115 7.97134 0
4.40272 8.50799 0
4.43482 9.70468 0
2.48102 11.1752 0
2.47888 11.1739 0
-2.69684 11.3141 0
-4.22607 9.87678 0
-3.78714 9.11767 0
-4.70791 8.01551 0
1.10519 1.24688 0
-0.394782 0.307774 0
6.31574 2.13745 0
5.14519 0.636881 0
4.98735 3.13247 0
2.99388 4.01449 0
-9.29042 11.6128 0
-6.20485 11.2711 0
2.99138 4.01446 0
1.54977 4.7529 0
-9.62511 7.67996 0
-8.20369 7.03016 0
-1.18159 -1.61984 0
-1.70405 -4.2866 0
4.2136 32.7145 0
4.46027 34.2165 0
0.806214 -2.24167 0
0.979205 -0.800048 0
2.63807 8.51702 0
1.40828 7.48971 0
9.09169 10.3125 0
6.0264 10.0728 0
9.68485 21.9663 0
0.464896 12.6663 0
-3.06068 -0.662458 0
-3.86266 -3.39391 0
-4.61571 2.39681 0
-5.53515 1.25907 0
-5.99467 -2.19743 0
-4.85128 0.219676 0
0.422181 8.02896 0
-0.582385 7.59981 0
9.48817 5.8982 0
7.82797 5.19663 0
5.26811 -0.620771 0
6.87904 -2.69809 0
1.20591 -4.71934 0
1.3315 -2.69791 0
-6.48932 1.40873 0
-8.12897 -0.428908 0
-5.62277 5.10629 0
-6.95444 3.93243 0
7.4097 1.97671 0
9.77061 0.163201 0
-12.6849 7.56103 0
-9.65674 7.73962 0
13.0926 7.43759 0
11.0095 7.41689 0
-3.00484 3.65824 0
-3.94382 2.36165 0
-9.74335 1.79821 0
-6.95587 3.37581 0
-3.75989 6.86384 0
-4.55907 4.98706 0
-7.0576 7.1787 0
-6.64282 6.32965 0
8.53184 7.26837 0
8.79696 7.799 0
-0.778916 12.5533 0
-0.676567 11.7759 0
13.0349 10.7644 0
10.6228 12.071 0
10.5376 14.5761 0
2.33431 11.472 0
8.29339 8.97903 0
9.67266 9.74774 0
-7.61617 8.68641 0
-7.95653 9.50378 0
-2.27817 14.7558 0
1.13835 13.8384 0
-10.3085 13.9808 0
-4.3454 13.0032 0
9.67184 9.75012 0
13.0309 10.0942 0
-10.9709 15.3767 0
-13.2762 15.9537 0
-12.9216 11.152 0
-9.53156 11.2332 0
13.0521 19.2488 0
10.6788 17.7347 0
8.95962 11.2706 0
6.87079 11.4297 0
-9.5314 11.2307 0
-7.62582 10.3936 0
2.83218 14.3744 0
4.65465 12.9146 0
-4.73372 11.6279 0
-3.8946 10.7916 0
5.46142 12.7087 0
4.52015 11.2123 0
13.4254 12.5535 0
10.8716 12.7054 0
-2.93406 14.4044 0
-4.90294 13.9968 0
-6.40692 29.2465 0
0.249544 15.2201 0
-6.85922 11.9494 0
-4.8286 13.3767 0
-12.981 11.9132 0
-9.7906 12.331 0
6.95728 16.6482 0
8.85788 15.2374 0
-0.850236 14.0523 0
-0.534984 12.7879 0
-10.4491 19.952 0
-12.9756 20.0384 0
2.60107 32.3571 0
2.77281 15.2902 0
-3.22503 16.7404 0
-10.1923 20.4042 0
-10.9901 14.5212 0
-13.2848 14.0057 0
-6.96674 15.6828 0
-6.51216 14.4116 0
-6.72614 12.5241 0
-7.62924 13.624 0
13.669 14.5377 0
11.249 15.1312 0
-10.398 22.1283 0
-12.4412 23.3354 0
6.63272 12.4364 0
5.46322 12.707 0
10.6563 16.5352 0
8.89394 16.0325 0
4.4764 13.8544 0
7.3407 16.3298 0
-2.05997 15.797 0
-0.263557 16.0989 0
12.6414 25.2729 0
10.501 24.7421 0
0.666225 15.1415 0
1.78766 15.9458 0
9.7005 27.092 0
4.67326 16.0186 0
13.5396 13.5441 0
10.7104 13.9696 0
-8.74384 15.4371 0
-8.8866 14.5186 0
-9.68375 12.6263 0
-7.66118 13.2665 0
-10.1132 19.3231 0
-6.61126 17.1853 0
0.877669 33.1167 0
0.685775 34.6771 0
2.1744 13.7007 0
2.90689 12.2689 0
-4.09583 16.0575 0
-4.15698 15.2256 0
-13.0244 18.8326 0
-10.4894 18.7389 0
0.258242 17.3289 0
-0.0538439 17.1604 0
8.35656 13.5549 0
7.93925 14.344 0
9.23806 11.8789 0
8.18644 13.1695 0
-10.7415 21.2498 0
-12.8837 21.3573 0
-2.5784 16.6356 0
-1.58743 17.8217 0
2.03213 16.8468 0
4.1033 16.9228 0
6.94828 14.4337 0
6.74429 14.8223 0
-7.71208 18.9039 0
-7.48987 19.1433 0
-9.54062 16.813 0
-6.86684 16.6264 0
4.61252 15.8764 0
5.27393 14.8472 0
-9.41587 23.9744 0
-3.84766 18.2333 0
12.2611 26.8556 0
10.6114 26.3365 0
-8.39002 30.7554 0
-7.19378 29.1792 0
9.37218 18.0701 0
8.33956 16.5901 0
12.7541 21.2718 0
10.1985 21.1773 0
4.97663 18.2055 0
6.88072 19.2948 0
1.87434 18.9521 0
4.28907 18.5688 0
-0.234853 24.869 0
-2.59028 23.7767 0
-2.72168 22.0087 0
-4.41672 20.1049 0
-6.61492 16.1608 0
-4.33818 15.1556 0
-9.2856 22.2603 0
-8.19734 20.5053 0
7.01531 24.4776 0
7.89791 21.4758 0
-13.0643 17.7048 0
-9.88664 17.568 0
-9.85779 17.6155 0
-7.64731 18.1228 0
0.233719 19.0965 0
0.480935 18.7983 0
5.26219 31.9382 0
2.45628 21.9793 0
8.25176 32.7562 0
7.50002 31.4488 0
-11.4922 26.9514 0
-9.81544 26.0063 0
-5.66915 17.3542 0
-5.35025 18.1797 0
9.09467 18.6873 0
7.85622 18.3564 0
1.98668 16.9114 0
2.5114 17.9974 0
10.9366 17.1682 0
13.5281 17.4805 0
12.8731 19.8104 0
9.35387 18.4961 0
-8.96622 26.3943 0
-4.37477 20.2234 0
-1.88774 18.677 0
-3.50823 18.7986 0
3.8654 22.6461 0
4.69183 22.1431 0
-5.96938 19.0629 0
-5.6189 19.8926 0
5.00866 17.9379 0
6.96127 17.1764 0
-1.4538 21.5636 0
0.113601 22.8175 0
1.0839 28.7401 0
5.04294 30.3861 0
-3.65617 31.4631 0
-4.20829 33.4509 0
-1.49525 31.9536 0
-1.55191 24.5646 0
-12.1569 24.9384 0
-10.1196 24.8148 0
-1.57731 19.0792 0
-3.3998 20.5287 0
-6.91028 22.2345 0
-5.5018 21.8864 0
8.10708 29.0602 0
6.32736 29.4401 0
5.72028 20.9266 0
7.26806 21.8456 0
10.2721 24.9518 0
8.25027 24.0525 0
12.7651 23.3463 0
10.4946 23.7258 0
-7.77878 28.0504 0
-3.29999 21.7049 0
10.0689 31.0047 0
8.65337 30.1748 0
2.9464 20.1518 0
4.29766 19.4931 0
-10.7676 28.2318 0
-8.98469 27.2187 0
-0.131673 26.3895 0
3.91285 23.7224 0
0.662946 20.233 0
2.33571 20.7827 0
-8.13686 20.6384 0
-6.79431 21.0051 0
9.52588 19.9558 0
7.9411 20.2593 0
-1.11382 20.7306 0
-1.86076 19.8424 0
12.8112 20.1996 0
9.52753 19.9539 0
-1.75484 24.0153 0
-0.724472 22.7004 0
-5.17238 22.4272 0
-4.2822 22.5412 0
-3.46652 24.4518 0
-3.96811 24.2207 0
-12.3616 23.6554 0
-9.59794 23.5335 0
5.01106 24.3269 0
6.02596 23.7798 0
0.487179 28.7995 0
0.205803 32.453 0
-7.24076 23.557 0
-6.35525 24.4023 0
-0.745836 32.7075 0
-1.14011 34.3846 0
-4.63863 28.248 0
-3.52821 29.1075 0
9.72815 22.999 0
8.4278 23.3302 0
11.7001 28.3963 0
9.81945 27.6829 0
6.06684 22.9783 0
7.24399 22.3882 0
2.92626 20.4298 0
4.69358 21.5116 0
3.07568 24.2745 0
2.80301 27.5988 0
5.72029 20.3264 0
6.9009 19.6115 0
1.87526 22.4392 0
2.09364 23.8375 0
12.7383 22.3258 0
9.95972 22.4289 0
-1.70174 29.8837 0
-1.23579 28.6269 0
-6.02164 30.1191 0
-7.1991 31.6867 0
0.246772 20.7418 0
0.748363 22.1077 0
-5.98236 24.3114 0
-5.21308 24.9561 0
-9.0467 22.7016 0
-6.91087 22.2321 0
6.25224 27.58 0
8.10891 26.474 0
-9.49717 29.7776 0
-8.19884 28.0604 0
-5.23762 25.963 0
-4.17928 26.6344 0
1.89869 29.9226 0
4.71264 30.2429 0
-4.9284 30.2843 0
-4.10359 29.1125 0
5.97463 27.9141 0
4.16926 26.7068 0
2.06191 27.3895 0
1.48431 26.1727 0
-3.40412 26.2478 0
-3.30015 26.311 0
2.42988 32.8234 0
3.07275 34.5188 0
0.505074 24.2073 0
1.28051 24.4806 0
-7.18601 25.993 0
-6.88458 26.7492 0
1.45162 31.0511 0
0.581389 31.2183 0
-2.21 25.8596 0
-1.24132 26.8273 0
6.81144 31.2928 0
6.57769 29.5619 0
-2.25439 32.154 0
-2.76373 33.9485 0
-3.17699 31.2836 0
-2.83303 30.0833 0
8.49507 26.3498 0
8.9562 24.859 0
-5.73597 28.2608 0
-6.30871 26.8524 0
8.32044 28.6308 0
7.68006 27.6598 0
-1.07988 30.603 0
-0.120404 30.4147 0
-8.45265 24.242 0
-8.17297 25.7759 0
6.39315 33.6613 0
5.91784 32.1588 0
10.6765 30.1523 0
9.13649 28.6034 0
3.31284 32.1417 0
3.49383 30.9174 0
0.130223 28.3719 0
0.447291 26.7807 0
-4.73719 30.9177 0
-6.00806 32.5246 0
3.15142 25.4367 0
1.86085 26.3413 0
4.41112 28.9067 0
5.17394 27.8302 0
5.01661 25.5645 0
4.20786 26.0251 0
-2.91221 28.0957 0
-1.66352 28.0802 0
6.9065 25.4947 0
5.92853 26.0486 0
3.14254 28.7038 0
2.4658 29.8577 0
-5.54314 30.1914 0
-5.0736 28.253 0
3.0429 32.2234 0
3.76651 34.3677 0
CELLS 263 1756
5 0 160 161 4 5
6 9 3 2 6 7 8
6 161 3 9 144 145 4
8 5 4 145 12 13 14 15 156
8 7 16 178 17 147 18 19 8
7 19 20 21 10 144 9 8
6 125 153 22 23 24 124
8 25 26 13 12 11 124 24 127
7 27 28 29 168 14 13 26
6 147 17 30 31 32 146
7 18 33 148 149 152 20 19
5 20 152 153 125 21
7 22 37 163 174 175 40 23
5 24 23 40 126 127
5 26 25 192 193 27
7 28 27 193 170 171 47 173
9 33 146 32 186 48 49 50 34 148
5 52 36 35 128 129
6 36 52 53 162 163 37
6 38 54 55 139 130 131
7 40 175 132 133 59 41 126
6 42 41 59 196 197 43
7 44 43 197 184 185 195 45
8 49 64 65 177 66 134 51 50
7 51 134 135 136 53 52 129
6 53 136 137 55 54 162
8 55 137 70 165 71 233 138 139
7 57 56 140 231 141 142 58
7 59 133 58 142 143 60 196
6 61 60 143 77 198 199
5 65 80 81 176 177
6 67 200 201 208 69 68
7 69 208 209 216 164 165 70
5 71 225 264 265 233
8 73 72 236 291 333 237 241 215
5 211 91 92 93 210
8 77 76 210 93 189 154 155 198
5 97 6 2 1 96
5 98 16 7 6 97
5 99 30 17 178 179
4 186 187 101 48
5 102 64 49 48 101
5 103 80 65 64 102
6 83 82 176 81 104 105
4 191 83 105 190
5 217 120 121 164 216
5 122 123 214 254 255
5 110 92 91 90 109
5 93 92 110 188 189
5 113 79 78 95 112
5 114 63 62 79 113
5 114 194 195 185 63
4 116 172 173 47
5 118 15 14 168 169
5 119 0 5 156 157
5 180 181 160 0 119
4 100 31 30 99
4 104 81 80 103
5 249 292 293 284 248
4 112 95 94 111
5 47 171 182 183 116
6 120 204 205 298 224 121
5 122 242 243 282 123
5 124 11 10 21 125
6 126 41 42 192 25 127
5 128 34 50 51 129
6 130 203 56 57 39 131
5 132 39 57 58 133
5 134 66 67 68 135
6 136 135 68 69 70 137
8 138 207 167 247 202 203 130 139
5 140 73 215 230 231
6 142 141 75 76 77 143
5 144 10 11 12 145
4 146 33 18 147
5 148 34 128 35 149
7 150 221 226 227 74 151 240
7 152 149 35 36 37 22 153
5 154 94 95 78 155
4 156 15 118 157
4 223 356 357 222
6 160 181 1 2 3 161
5 162 54 38 174 163
6 164 121 224 225 71 165
7 166 445 430 431 435 387 337
4 168 29 117 169
6 170 44 45 46 182 171
5 172 117 29 28 173
6 174 38 131 39 132 175
6 176 82 200 67 66 177
4 178 16 98 179
4 180 96 1 181
4 182 46 115 183
6 184 61 199 62 63 185
5 186 32 31 100 187
5 188 111 94 154 189
5 190 106 85 84 191
6 192 42 43 44 170 193
5 194 115 46 45 195
5 196 60 61 184 197
6 198 155 78 79 62 199
6 200 82 83 191 84 201
6 202 72 73 140 56 203
4 204 234 235 205
6 206 261 87 266 267 245
5 208 201 84 85 209
6 210 76 75 74 227 211
6 247 167 213 274 239 246
6 214 123 282 283 259 281
5 216 209 85 106 217
5 218 89 88 108 219
5 220 109 90 226 221
5 222 358 359 320 223
5 224 298 299 264 225
5 226 90 91 211 227
5 228 288 289 229 268
6 230 151 74 75 141 231
7 232 229 289 207 138 233 265
5 234 278 279 86 235
7 236 212 270 302 252 290 291
6 253 248 284 308 309 335
6 240 151 230 215 241 258
5 242 220 221 150 243
6 244 277 312 313 307 269
6 246 212 236 72 202 247
5 248 253 300 301 249
8 239 274 275 304 354 294 295 271
6 252 302 303 362 363 315
4 254 218 219 255
5 256 280 281 259 257
6 258 241 237 257 259 283
4 260 107 87 261
5 318 319 238 448 449
7 264 299 296 297 306 232 265
6 266 356 223 320 321 267
6 268 229 232 306 307 313
5 270 212 246 239 271
5 272 316 317 388 273
6 274 213 288 228 251 275
7 276 433 501 492 493 457 488
5 278 260 261 206 279
6 280 89 218 254 214 281
6 282 243 150 240 258 283
5 284 293 340 341 308
4 286 472 473 287
5 288 213 167 207 289
7 311 332 333 291 290 350 285
5 292 338 339 340 293
6 328 377 412 413 371 474
6 296 86 279 206 245 297
6 298 205 235 86 296 299
4 300 262 263 301
5 302 270 271 295 303
6 304 275 251 312 277 305
7 306 297 245 267 321 269 307
7 308 341 285 350 351 366 309
7 310 88 89 280 256 332 311
5 312 251 228 268 313
7 314 419 454 455 382 424 496
5 316 432 433 276 317
5 318 458 459 392 319
8 320 359 352 353 369 244 269 321
5 322 444 445 166 323
5 324 368 369 353 325
5 326 343 294 354 355
6 376 494 495 479 423 426
6 330 329 416 417 415 393
5 332 256 257 237 333
6 334 262 300 253 335 404
6 336 421 434 435 431 389
5 338 108 88 310 339
6 340 339 310 311 285 341
7 343 342 380 362 303 295 294
6 344 158 502 503 463 373
5 346 498 499 482 347
4 348 378 379 349
5 350 290 252 315 351
7 352 411 406 407 441 325 353
7 354 304 305 368 324 327 355
5 356 266 87 107 357
5 358 410 411 352 359
6 360 349 379 314 496 497
7 362 380 409 381 361 331 363
6 364 345 403 436 437 365
6 366 351 315 363 331 367
5 368 305 277 244 369
6 370 408 450 451 371 413
6 438 508 509 469 475 443
5 375 374 486 484 485
6 487 446 494 376 484 486
5 378 418 419 314 379
6 380 342 402 450 408 409
7 382 455 405 367 331 361 383
5 384 395 347 482 483
6 386 440 441 407 337 387
5 388 317 276 488 489
4 390 272 273 391
7 392 459 399 360 497 476 477
4 394 346 347 395
5 396 326 355 327 397
5 398 348 349 360 399
6 400 328 474 475 469 505
7 402 342 343 326 396 436 403
6 404 335 309 366 367 405
5 406 323 166 337 407
6 408 370 330 393 381 409
5 410 322 323 406 411
5 412 329 330 370 413
6 414 383 361 381 393 415
6 521 490 491 460 461 428
6 418 263 262 334 454 419
6 420 401 364 365 434 421
6 422 372 462 478 479 495
6 424 382 383 414 452 425
5 426 423 286 287 427
7 428 461 470 471 514 429 465
7 430 391 273 388 489 389 431
4 432 500 501 433
6 434 365 437 386 387 435
6 436 396 397 440 386 437
6 438 401 420 512 513 508
6 440 397 327 324 325 441
6 442 345 364 401 438 443
5 444 390 391 430 445
6 446 487 429 514 515 447
6 448 520 464 506 507 449
6 450 402 403 345 442 451
5 452 414 415 417 453
5 454 334 404 405 455
6 517 512 420 421 336 516
4 458 398 399 459
6 460 453 417 416 470 461
6 462 372 468 439 518 519
5 464 520 521 428 465
6 466 385 373 463 510 511
7 468 372 422 504 505 469 509
7 470 416 329 412 377 480 471
5 472 250 522 523 473
6 474 371 451 442 443 475
7 476 425 452 453 460 491 477
6 478 250 472 286 423 479
5 480 377 328 400 481
6 482 499 344 373 385 483
5 484 376 426 427 485
7 486 374 506 464 465 429 487
6 488 457 516 336 389 489
6 490 238 319 392 477 491
7 492 384 483 385 466 456 493
6 494 446 447 504 422 495
5 496 424 425 476 497
5 498 159 158 344 499
6 500 394 395 384 492 501
7 522 250 478 462 519 503 502
6 504 447 515 481 400 505
4 506 374 375 507
6 508 513 467 439 468 509
5 467 511 510 518 439
7 512 517 456 466 511 467 513
5 514 471 480 481 515
5 516 457 493 456 517
5 518 510 463 503 519
5 520 448 238 490 521
5 522 502 158 159 523
CELL_TYPES 263
7
7
7
7
7
7
7
7
7
7
7
7
7
7
7
7
7
7
7
7
7
7
7
7
7
7
7
7
7
7
7
7
7
7
7
7
7
7
7
7
7
7
7
7
7
7
7
7
7
7
7
7
7
7
7
7
7
7
7
7
7
7
7
7
7
7
7
7
7
7
7
7
7
7
7
7
7
7
7
7
7
7
7
7
7
7
7
7
7
7
7
7
7
7
7
7
7
7
7
7
7
7
7
7
7
7
7
7
7
7
7
7
7
7
7
7
7
7
7
7
7
7
7
7
7
7
7
7
7
7
7
7
7
7
7
7
7
7
7
7
7
7
7
7
7
7
7
7
7
7
7
7
7
7
7
7
7
7
7
7
7
7
7
7
7
7
7
7
7
7
7
7
7
7
7
7
7
7
7
7
7
7
7
7
7
7
7
7
7
7
7
7
7
7
7
7
7
7
7
7
7
7
7
7
7
7
7
7
7
7
7
7
7
7
7
7
7
7
7
7
7
7
7
7
7
7
7
7
7
7
7
7
7
7
7
7
7
7
7
7
7
7
7
7
7
7
7
7
7
7
7
7
7
7
7
7
7
7
7
7
7
7
7
CELL_DATA 263
SCALARS cell_division_count float
LOOKUP_TABLE default
1
0
1
0
0
0
1
0
0
1
1
1
1
1
1
1
0
1
1
1
1
1
1
0
1
1
1
1
1
1
1
1
2
4
3
1
1
0
0
1
1
0
0
0
1
2
3
0
1
0
0
1
1
1
1
1
0
0
3
0
1
2
3
1
1
1
1
1
1
1
2
2
1
1
1
1
2
1
1
1
3
1
1
2
9
1
1
1
1
1
1
1
1
1
1
1
1
1
1
1
1
1
2
3
5
2
1
3
5
2
2
2
5
3
2
4
2
3
5
5
6
3
3
6
3
4
6
9
3
5
4
4
7
5
6
6
5
4
5
13
5
5
5
7
5
4
6
4
10
5
3
4
6
6
6
7
6
6
11
7
8
7
6
7
8
11
11
6
8
9
4
7
8
11
6
7
7
8
8
3
6
12
10
11
9
7
11
13
8
11
8
11
10
11
9
9
5
13
6
10
7
12
10
10
8
11
6
10
11
13
8
11
10
11
7
10
9
8
9
11
13
9
11
6
12
8
11
12
11
13
8
12
11
11
13
13
10
6
12
13
10
11
11
8
11
9
13
13
11
12
6
8
11
13
8
13
13
13
12
13
11
11
6
SCALARS cell_time float
LOOKUP_TABLE default
1521
2.22229e+13
1541
4.48239e+13
2.67348e+11
1.25633e+10
1551
2.68224e+09
9.19769e+11
1541
1541
1531
1501
1551
1471
1511
1.22753e+06
1551
1521
1551
1551
1451
1491
25333.4
1551
1551
1551
1551
1551
1441
1501
1441
1401
1141
1291
1391
1531
1.00108e+18
2.94533e+15
1501
1491
106633
2895.76
1607.34
1481
1381
1181
1598.01
1491
4249.01
1866.18
1471
1511
1521
1531
1501
1.12104e+13
22716.3
971
3587.96
1501
1421
1241
1551
1551
1551
1551
1551
1551
1551
1431
1311
1551
1541
1541
1541
1371
1531
1531
1531
671
1521
1521
1381
301
1521
1511
1511
1501
1501
1501
1501
1501
1491
1491
1491
1481
1471
1471
1451
1441
1441
1431
1301
1121
1401
1391
1241
1021
1381
1381
1381
671
961
1371
991
1311
1301
1031
991
881
1261
1241
871
1241
961
971
661
1181
1031
1161
1161
251
971
861
891
1091
871
1061
91
1031
1031
1021
721
151
991
761
741
391
971
961
961
961
951
891
691
881
871
231
301
221
681
271
611
681
91
361
761
751
301
741
721
721
71
81
551
691
411
681
671
401
91
541
301
621
611
241
31
111
101
361
411
531
121
301
101
501
131
481
481
471
141
451
421
411
411
401
391
371
101
361
351
131
341
341
161
301
81
301
301
21
301
291
271
21
41
241
241
231
11
221
221
11
1
31
51
161
1
141
131
131
131
121
111
101
101
101
91
91
91
81
81
71
51
41
31
31
21
21
11
11
1
1
SCALARS cell_area float
LOOKUP_TABLE default
3.24297
3.30112
3.29443
3.35745
3.35235
3.34495
3.32845
3.37733
3.35007
3.28248
3.33828
3.28574
3.38588
3.32088
3.30784
3.3314
3.40071
3.29029
3.34618
3.39321
3.39192
3.34216
3.34139
3.37449
3.36147
3.37693
3.43379
3.40366
3.39244
3.33163
3.24929
3.30073
3.34517
3.32527
3.44322
3.25347
3.34897
3.25353
3.26212
3.24964
3.2387
3.28014
3.26385
3.28145
3.22301
3.29146
3.26492
3.26675
3.26188
3.25075
3.27025
3.27553
3.21786
3.25827
3.24568
3.24301
3.21076
3.21937
3.28144
3.19895
3.24765
3.30972
3.27695
3.28246
3.33967
3.289
3.39475
3.35203
3.28449
3.36101
3.44384
3.35126
3.35822
3.28826
3.24871
3.27761
3.34247
3.35238
3.23453
3.22314
3.23302
3.2596
3.33491
3.32707
3.35189
3.22384
3.29841
3.25353
3.37114
3.29026
3.22557
3.2046
3.21764
3.30624
3.25305
3.24808
3.2618
3.3262
3.26501
3.30274
3.29259
3.26716
3.39473
3.24187
3.30078
3.24658
3.3306
3.38211
3.29297
3.2816
3.26953
3.27594
3.28756
3.29061
3.25109
3.30799
3.35648
3.3976
3.26685
3.42082
3.29594
3.35217
3.27953
3.33398
3.39678
3.27714
3.42749
3.37788
3.22447
3.27824
3.33213
3.21956
3.29807
3.36781
3.32179
3.34132
3.35273
3.27534
3.35726
3.3225
3.26213
3.28598
3.31717
3.27219
3.25712
3.34304
3.38584
3.28165
3.29375
3.31737
3.30289
3.24735
3.35346
3.34369
3.37973
3.37689
3.34033
3.29632
3.33472
3.27902
3.2867
3.40084
3.30126
3.30513
3.34316
3.29919
3.30278
3.32139
3.28991
3.32574
3.28378
3.3234
3.4042
3.28385
3.28039
3.23431
3.34684
3.36241
3.36189
3.25381
3.30331
3.28752
3.39799
3.33399
3.36956
3.30205
3.324
3.30902
3.29815
3.30808
3.29
3.36718
3.37073
3.24275
3.33273
3.26316
3.24956
3.32326
3.22645
3.31186
3.27096
3.29795
3.37736
3.33646
3.29385
3.3403
3.30064
3.27528
3.34016
3.27454
3.31528
3.32287
3.29575
3.30812
3.29594
3.32619
3.3353
3.25399
3.33038
3.32959
3.31393
3.32652
3.32229
3.29559
3.3063
3.29669
3.34136
3.27472
3.28194
3.31121
3.24274
3.30382
3.2836
3.30749
3.27903
3.33024
3.32009
3.33384
3.31482
3.32667
3.2889
3.2546
3.27679
3.30323
3.33711
3.30084
3.30092
3.31994
3.3025
3.27687
3.30261
3.31039
3.2829
3.29308
3.25957
3.29803
3.24629
3.32303
3.26215
3.2762
3.23615
1.01975e-320
3.26716
SCALARS cell_perimeter float
LOOKUP_TABLE default
6.93018
6.9393
6.97415
7.1861
7.11994
6.83055
7.05703
7.56862
6.9299
6.93518
7.38066
6.99686
6.82032
7.19654
7.02805
6.78989
7.17611
6.96585
6.96033
7.15171
6.91357
7.20451
7.21188
7.5068
7.51583
6.93606
8.24021
6.97203
6.85032
7.04395
6.95861
7.00429
8.28707
7.02803
7.03433
7.29469
7.82977
7.52191
7.82738
7.63631
8.27638
8.66487
8.17808
7.74118
7.37604
9.12772
7.72761
7.58522
8.02251
7.64512
8.10826
8.42993
7.78774
8.07994
7.67658
7.21729
7.43523
7.38768
7.67948
7.32457
7.73126
9.12557
8.28429
7.03384
7.08364
7.20216
6.95852
7.01634
7.12333
6.89296
8.0856
7.01726
7.1187
7.09121
7.24425
7.20605
7.82259
7.21309
6.93701
7.87829
7.87905
6.79047
7.01045
8.053
7.13472
7.98536
6.82387
7.98643
6.98579
6.99329
7.79581
7.31505
7.65591
7.09413
7.9346
7.95199
7.33617
6.92165
8.22307
7.13711
7.13975
6.92411
7.2372
7.81432
7.00692
7.00673
6.82639
7.07635
7.21415
8.37224
8.17616
8.40967
8.93655
7.18115
7.2425
7.09411
6.94317
7.81757
7.91929
6.86268
7.52938
7.16616
8.69706
7.33731
7.31053
7.5233
7.0491
7.00911
7.53205
6.98347
7.28634
7.60777
7.19478
7.50717
7.08722
7.24952
7.09906
7.2986
6.85387
6.81076
7.88765
6.82708
7.54894
7.47288
7.35715
7.20489
7.65705
8.19019
6.89063
7.17917
7.15987
7.48836
7.10516
7.34371
6.95096
6.951
7.84229
7.06999
7.41922
7.16668
7.30027
7.37481
7.87149
7.39353
7.02005
6.79629
7.08311
7.38327
7.20284
6.89273
8.55179
7.84604
7.12402
6.93019
7.10171
7.31547
7.15155
7.13283
7.63223
7.69311
9.10424
6.82425
7.37089
7.12065
6.95411
7.42228
6.86452
6.96924
7.23636
6.81474
7.67978
7.0186
7.6597
7.02205
6.95356
6.90437
7.45399
6.80554
7.39133
7.05152
7.20475
6.94407
7.34041
7.11441
7.01987
6.92277
8.32088
7.00666
7.03171
6.94103
8.08926
6.86266
6.9283
7.10618
7.0736
7.26854
6.85966
7.37432
7.08198
7.28466
6.79868
7.24196
6.87022
7.77495
6.81477
7.23277
6.99149
7.10667
7.30036
6.78064
7.3559
6.9221
6.9382
6.79906
7.01571
7.12864
7.11187
7.06325
6.84487
6.98051
6.93727
6.89049
7.12395
7.11755
6.83931
6.91765
6.93782
6.96125
6.94131
6.98063
7.10551
7.40916
6.9821
6.92002
7.34669
6.93715
6.89876
6.95769
6.94646
6.93092
6.86169
13
3.27695
SCALARS cell_frequency_modifier float
LOOKUP_TABLE default
2.90138e+17
3.31082e+14
1.38943e+14
7.8635e+13
2.43987e+13
1.74472e+12
4.3546e+09
1.23134e+11
1.79396e+13
1.34741e+14
1.55021e+11
3.35995e+11
6.521e+07
1.63873e+09
5.48137e+11
4.33472e+12
9.4047e+10
2.00024e+09
3.92386e+07
368723
5.1812e+07
7.17187e+08
1.35258e+10
2.79928e+09
5.10592e+07
2.15001e+06
252282
407882
1.3184e+07
6.15619e+07
8.17814e+11
3.41777e+07
1.09272e+06
107739
3225.38
9.65526e+08
1.79771e+07
5.81471e+18
1.2954e+18
1.33377e+17
4.43537e+14
5.05128e+13
1.47512e+13
4.07465e+10
3.22432e+10
2.15473e+06
1.36239e+06
3.97094e+08
2.95991e+09
1.0895e+12
4.1598e+12
1.80453e+13
4.36177e+16
7.61456e+17
8.42623e+18
10000
4.06743e+16
2.88705e+12
1818.46
1.96457e+11
5.37746e+15
230692
5.32203e+06
2.18598e+12
4.87395e+09
1.43925e+10
233088
3.02326e+06
6.42524e+08
2.9691e+06
42296.7
48531.4
3.0993e+06
1.59014e+13
2.33817e+14
2.34483e+12
142986
1.36926e+09
4.8508e+10
5.20858e+18
19680.8
4.8924e+17
6.31745e+06
351041
3.22186
5.5761e+17
1.25596e+12
8.5184e+16
3.37264e+06
1.4281e+09
8.50088e+17
10000
1.31544e+15
3.93264e+09
2.20175e+15
1.48026e+10
3.20686e+09
5.09035e+10
1.02636e+14
7.62884e+08
2.01799e+09
1.44909e+10
30683.1
1.13961e+07
1994.87
1.37284e+09
1.66029e+06
3462.48
30605.6
5.70261e+07
100015
6.23387e+07
304.871
227482
1.4759e+08
15696.3
257744
32820.3
2.4302e+06
490.301
67.6243
30616.7
1.85963e+07
725.002
4828.03
2451.31
247.72
69.1728
347819
446619
8684.71
196322
1.25279
7650.72
272.981
4781.27
1018.5
201.205
1657.79
0.768911
683644
11974.9
48221.7
11511.4
164.872
17972.5
292.474
1864.81
6.70157
5362.06
37705.7
1008.83
218
414.907
706.925
47.7132
433.848
5460.83
2.51919
131.809
3.4193
81.0845
11.3355
130.185
75.0249
1.26716
5.15034
1935.1
39.8551
2.61716
2001.48
193.105
42.2624
4.7587
88.9041
198.315
132.584
19.5993
88.4612
59028.4
49.7515
7.25551
15.0331
6.21064
26.1942
467.733
6.68303
1.80738
1.50569
0.796113
7.89025
13.3531
6.05556
100.241
10.9117
184.326
330.681
0.841144
106.218
54.8196
140.746
2.77509
14.3296
16.619
31.6449
7.94051
29.7412
652.928
5.8954
133.98
4.17174
3.13075
1.50435
4.21053
2.16242
0.681225
1.65027
106.647
5.33636
13.9967
1.81248
35.6193
3.39268
9.3536
0.853734
1.40402
6.33548
425.631
106.941
1.82371
111.276
1.85801
5.7428
0.827306
103.139
0.652621
1.59381
0.680913
3.50182
1.09579
3.11339
196.817
102.023
1.22272
0.456317
2.41764
1.21086
0.709893
0.984637
268.994
1.28705
0.733204
6.21561
2.21313
116.089
1.97249
117.112
0.866831
138.478
151.228
100.375
1
1
SCALARS cell_area_modifier float
LOOKUP_TABLE default
100
1.02959
1.59633
0.360746
0.376352
0.405594
0.528875
0.328922
0.390426
6.77922
0.451167
3.81022
0.31694
0.638923
0.794521
0.503375
0.300518
2.11336
0.399388
0.31127
0.315027
0.421989
0.425428
0.33526
0.353419
0.331008
0.290484
0.297097
0.313137
0.498567
100
1.11777
0.402467
0.569248
0.288877
100
0.393369
100
100
100
100
100
100
19.3333
100
1.95506
100
100
100
100
100
100
100
100
100
100
100
100
30.7059
100
100
0.738331
100
7.79104
0.447301
2.52174
0.307602
0.381858
4.11024
0.355828
0.287287
0.387528
0.35827
2.79144
100
100
0.418605
0.373658
100
100
100
100
0.467323
0.534289
0.384672
100
1.19451
100
0.337427
2.20253
100
100
100
0.832536
100
100
100
0.551214
100
0.937163
1.88448
100
0.309425
100
1.09434
100
0.508277
0.320836
1.81882
14.1081
100
100
2.94915
2.03113
100
0.782609
0.365802
0.304019
100
0.293754
1.46218
0.379085
100
0.480221
0.3058
100
0.29211
0.324829
100
100
0.493851
100
1.2518
0.3441
0.623656
0.432477
0.371002
100
0.363257
0.609102
100
3.55102
0.671815
100
100
0.415274
0.318876
11.1064
1.70033
0.663278
0.904679
100
0.368384
0.408771
0.32282
0.333121
0.43609
1.38462
0.471545
100
3.32484
0.298798
1.00967
0.846029
0.411997
1.16779
0.920635
0.631197
2.40553
0.563107
4.8785
0.58194
0.295416
4.46154
74.5714
100
0.396355
0.348697
0.351042
100
0.874372
3.12575
0.302258
0.475843
0.341847
0.990512
0.575524
0.748924
1.22248
0.771049
2.29956
0.346384
0.339623
100
0.489222
100
100
0.588501
100
0.708277
100
1.31486
0.326863
0.459103
1.64669
0.439764
1.14223
100
0.4435
100
0.680574
0.602076
1.50432
0.759825
1.42234
0.557097
0.463177
100
0.513274
0.523571
0.698795
0.545455
0.616293
1.54896
0.819466
1.34884
0.428924
100
9.15789
0.718019
100
0.859967
5.38144
0.806801
100
0.518371
0.64684
0.48468
0.689564
0.539814
2.64975
100
100
0.889267
0.4551
1.07187
1.0503
0.654956
0.972067
100
0.954296
0.728033
6
1.75758
100
1.28256
100
0.595211
100
100
100
1
1
SCALARS cell_Gaussian_modifier float
LOOKUP_TABLE default
2.90138e+15
3.21568e+14
8.70388e+13
2.17979e+14
6.48294e+13
4.30163e+12
8.23369e+09
3.74355e+11
4.59487e+13
1.98756e+13
3.43599e+11
8.81826e+10
2.05749e+08
2.56483e+09
6.89897e+11
8.61132e+12
3.1295e+11
9.46473e+08
9.82469e+07
1.18457e+06
1.64468e+08
1.69954e+09
3.17935e+10
8.34957e+09
1.44472e+08
6.49533e+06
868489
1.37289e+06
4.2103e+07
1.23478e+08
8.17814e+09
3.05766e+07
2.71504e+06
189265
11165.3
9.65526e+06
4.57004e+07
5.81471e+16
1.2954e+16
1.33377e+15
4.43537e+12
5.05128e+11
1.47512e+11
2.10758e+09
3.22432e+08
1.10213e+06
13623.9
3.97094e+06
2.95991e+07
1.0895e+10
4.1598e+10
1.80453e+11
4.36177e+14
7.61456e+15
8.42623e+16
100
4.06743e+14
2.88705e+10
59.222
1.96457e+09
5.37746e+13
312450
53220.3
2.80576e+11
1.08964e+10
5.70735e+09
757759
7.91724e+06
1.56323e+08
8.34421e+06
147228
125233
8.65072e+06
5.69647e+12
2.33817e+12
2.34483e+10
341578
3.66447e+09
4.8508e+08
5.20858e+16
196.808
4.8924e+15
1.35184e+07
657026
8.3756
5.5761e+15
1.05145e+12
8.5184e+14
9.99517e+06
6.4839e+08
8.50088e+15
100
1.31544e+13
4.72369e+09
2.20175e+13
1.48026e+08
3.20686e+07
9.23478e+10
1.02636e+12
8.14035e+08
1.07085e+09
1.44909e+08
99161.8
113961
1822.9
1.37284e+07
3.26651e+06
10792.1
16827.2
4.04208e+06
1000.15
623387
103.376
111998
1.4759e+06
20056.4
704599
107955
24302
1669.09
46.2488
80764.7
185963
1509.73
15788.2
24.5131
848.038
212.952
3478.19
4466.19
17585.7
1963.22
1.00079
22234
437.711
11055.5
2745.26
2.01205
4563.67
1.26237
6836.44
3372.23
71778.2
115.114
1.64872
43278.5
917.202
167.904
3.94135
8084.19
41678.5
10.0883
591.773
1015.01
2189.84
143.231
994.859
3943.93
5.34243
1.31809
1.02841
271.369
11.2269
153.878
182.101
1.0851
5.59434
3065.76
16.5681
4.64772
410.265
331.831
143.061
1.06661
1.1922
1.98315
334.508
56.2072
251.996
590.284
56.8997
2.32121
49.736
13.0519
76.6256
472.213
11.6121
2.41331
1.23166
1.03251
3.4312
38.55
17.8303
1.00241
22.3042
1.84326
3.30681
1.4293
1.06218
77.3986
1.40746
2.11056
43.8399
36.1988
19.2173
18.0563
26.0378
6.52928
13.2929
1.3398
6.12974
5.19992
1.00002
5.54145
1.52032
1.22281
3.56293
1.06647
10.3967
26.7332
2.59372
65.302
5.50498
6.03863
1.04182
1.04091
14.7707
4.25631
11.6774
2.53992
1.11276
2.16056
1.06715
1.02542
1.03139
1.25898
2.46399
1.40487
5.0783
2.02994
1.17498
1.96817
1.02023
1.37498
1.00267
2.25554
1.15287
1.08388
1.01293
2.68994
1.34869
1.0071
1.03593
1.25919
1.16089
1.53793
1.17112
1.45634
1.38478
1.51228
1.00375
1
1
