# vtk DataFile Version 3.0
2D-vertex
ASCII
DATASET UNSTRUCTURED_GRID

POINTS 988 float
0.666881 -4.11711 0
3.11539 -3.88656 0
3.4953 -2.93435 0
2.45985 -1.87601 0
0.190752 -1.75046 0
-0.514597 -3.24572 0
4.0239 -2.89535 0
4.58944 -2.03516 0
3.64298 -0.529589 0
2.5991 -0.853706 0
1.41412 0.394507 0
-0.277852 0.855644 0
-1.03113 -0.426739 0
-1.18721 -0.46678 0
-1.69021 -2.14036 0
-1.17305 -3.01976 0
5.16184 -2.18639 0
5.96557 -1.29691 0
4.11565 0.220776 0
3.8463 0.15134 0
2.96051 1.10162 0
1.89618 1.00446 0
1.21014 4.62699 0
0.358511 4.5945 0
-0.446517 2.70763 0
-1.64808 1.78252 0
-1.54719 -0.121512 0
-2.83695 -0.424028 0
-3.3405 -1.46147 0
-3.03273 -2.16909 0
7.0336 -1.27365 0
7.64799 -0.541581 0
7.45585 0.768592 0
5.22816 1.91503 0
5.69036 2.50019 0
3.33099 3.81077 0
2.55319 5.09188 0
1.66858 5.24038 0
0.72 8.42596 0
-0.864006 8.45301 0
-0.521319 5.39618 0
-2.012 4.4387 0
-3.05104 2.87901 0
-4.00797 2.90418 0
-4.73373 1.48591 0
-6.14117 1.16494 0
-6.4181 0.0984277 0
-4.89037 -1.24189 0
7.87139 1.40244 0
7.5162 2.43774 0
6.75946 2.84889 0
5.99487 4.90427 0
3.63471 6.07034 0
3.55346 6.94604 0
2.09157 8.55668 0
2.6207 9.26797 0
-1.83871 9.82436 0
-1.73187 8.90167 0
-2.96543 7.54473 0
-2.61911 5.39407 0
-4.25246 5.6849 0
-5.62625 4.35303 0
-7.53245 2.84376 0
-7.38474 2.31102 0
8.4262 2.86105 0
8.42614 2.86354 0
6.90829 4.89514 0
7.32466 6.10418 0
6.03404 7.36188 0
6.23391 8.04923 0
5.42077 9.0609 0
5.13665 9.57918 0
-2.56502 12.1247 0
-2.82805 11.7713 0
-5.9813 8.80847 0
-5.30751 8.03287 0
-6.02144 6.64618 0
-5.93831 6.48534 0
-8.52135 3.34415 0
-8.36759 2.99159 0
9.95192 3.1961 0
10.2525 4.15769 0
9.43318 5.12757 0
10.5906 5.57308 0
10.2557 7.09371 0
10.4299 7.80773 0
9.52988 12.431 0
10.4957 14.5247 0
-9.55906 13.7971 0
-9.55883 13.7946 0
-9.95337 7.92523 0
-9.65753 7.4088 0
-9.99593 6.77027 0
-9.24606 5.68286 0
-10.0495 4.41864 0
-9.57928 3.44088 0
4.06584 -5.72534 0
5.25998 -5.15173 0
6.08891 -4.72757 0
8.40532 -3.07916 0
9.66404 -1.61231 0
10.9397 0.757154 0
11.0298 0.931917 0
11.7037 2.02414 0
12.438 3.974 0
12.6267 4.76794 0
12.7048 8.29617 0
13.0805 15.0089 0
-13.1598 14.2269 0
-12.5503 7.8655 0
-12.4563 6.58657 0
-12.0594 4.0438 0
-11.1635 2.11268 0
-10.288 1.02317 0
-9.67131 0.308285 0
-8.74072 -1.00403 0
-6.7702 -3.10578 0
-4.66671 -4.46542 0
-2.54412 -5.41564 0
0.476019 -6.16675 0
12.5249 9.77689 0
8.42991 9.88084 0
-12.8373 10.3285 0
-9.93529 11.1809 0
-0.189666 2.373 0
1.1021 2.4938 0
-1.76009 4.41133 0
-0.97827 2.69102 0
4.58345 4.03428 0
4.96947 4.96403 0
0.397942 10.0343 0
0.189894 8.91133 0
-1.04826 6.7426 0
-2.22765 6.43053 0
5.99386 4.90654 0
5.11823 6.86934 0
4.13356 7.35303 0
4.11889 8.72338 0
2.07818 10.2956 0
2.07622 10.2941 0
-2.31768 10.0352 0
-3.87516 8.2326 0
-3.42537 7.55281 0
-4.38384 6.26879 0
1.54541 -0.246384 0
0.115065 -1.27046 0
6.628 0.996409 0
5.56799 -0.565683 0
5.22611 1.91647 0
3.18972 2.68871 0
-8.82767 9.57497 0
-5.80188 9.50755 0
3.18722 2.68873 0
1.74578 3.33865 0
-9.25932 5.62137 0
-7.84384 5.02762 0
-0.545552 -3.26229 0
-0.904832 -5.95483 0
14.8879 30.68 0
17.5964 30.5662 0
1.47185 -3.75708 0
1.55125 -2.30045 0
2.54852 7.30959 0
1.39131 6.26704 0
8.26278 9.40365 0
5.42092 9.06341 0
8.59681 20.183 0
-0.0839699 11.99 0
-2.46906 -2.41554 0
-3.1226 -5.18536 0
-4.1497 0.575163 0
-5.02368 -0.621568 0
-5.32124 -4.09722 0
-4.29439 -1.62703 0
0.462003 6.72202 0
-0.442669 6.27653 0
9.40586 4.98391 0
7.83512 4.15746 0
5.79161 -1.83349 0
7.55468 -3.78984 0
2.03199 -6.20353 0
2.02448 -4.17731 0
-5.9745 -0.516196 0
-7.538 -2.42388 0
-5.21177 3.2608 0
-6.52199 1.99655 0
7.71784 0.906073 0
10.2171 -0.715003 0
-12.3215 5.43239 0
-9.27053 5.64183 0
12.8566 6.81865 0
10.7678 6.58755 0
-2.61164 1.94811 0
-3.50154 0.574825 0
-9.24021 -0.256304 0
-6.50131 1.42771 0
-3.44506 5.18943 0
-4.17642 3.19436 0
-6.67986 5.22692 0
-6.25054 4.43487 0
8.28895 6.29154 0
8.48463 6.778 0
-0.884052 11.8201 0
-0.637394 10.69 0
12.5293 9.78599 0
9.8428 11.0286 0
9.67742 13.3122 0
1.75403 10.8729 0
7.84917 8.03908 0
9.04587 8.76948 0
-7.16621 6.73355 0
-7.51228 7.48121 0
-2.33538 14.1238 0
0.637741 13.3143 0
-9.87288 11.6758 0
-4.03907 11.5954 0
9.04448 8.77157 0
12.5538 9.32267 0
-10.6631 12.8204 0
-13.2144 13.2483 0
-12.6077 8.84478 0
-9.09022 9.13062 0
12.4864 17.747 0
9.89286 16.007 0
8.09506 10.3202 0
5.96288 10.4722 0
-9.09027 9.1281 0
-7.20624 8.45494 0
2.0728 13.8555 0
3.83754 12.2223 0
-4.3213 9.9948 0
-3.55527 9.35427 0
4.55026 11.9775 0
3.67162 10.4173 0
12.8432 11.4754 0
10.0394 11.5691 0
-2.94896 13.6896 0
-4.47866 12.5537 0
-13.5538 25.9471 0
-0.0963489 14.9336 0
-6.3924 10.0461 0
-4.34295 11.7993 0
-12.6895 9.56129 0
-9.2823 10.165 0
5.57868 16.0716 0
7.80115 14.1277 0
-1.25224 13.6893 0
-0.715726 12.0251 0
-10.2686 17.0634 0
-13.4725 16.051 0
17.002 36.6254 0
1.98241 14.9606 0
-3.02575 16.3819 0
-10.2106 17.461 0
-10.6183 12.1518 0
-13.0688 11.3599 0
-6.48641 13.837 0
-5.92231 12.7488 0
-6.2708 10.7999 0
-7.07601 11.7222 0
13.0503 13.1786 0
10.4548 13.8826 0
-11.1066 18.5545 0
-14.0866 18.4792 0
5.73668 11.5767 0
4.55894 11.9462 0
9.83699 15.1899 0
7.84832 14.6996 0
3.64689 13.3816 0
6.24248 15.4266 0
-2.16147 15.6172 0
-0.68255 15.9405 0
13.8358 20.0224 0
11.0977 21.1574 0
0.0242478 14.9101 0
0.942184 15.6205 0
11.8415 22.8956 0
3.57677 15.5277 0
12.9289 12.3104 0
9.81564 12.8006 0
-8.33425 13.3109 0
-8.35493 12.4418 0
-9.17998 10.5073 0
-7.07795 11.3442 0
-9.85378 16.6828 0
-6.08964 15.6574 0
16.7788 41.8634 0
18.2528 42.911 0
1.48078 13.2177 0
2.30166 11.681 0
-3.92956 15.3324 0
-3.80732 14.1031 0
-13.2907 15.2967 0
-10.0486 16.0084 0
-0.442873 17.5067 0
-0.506337 17.4617 0
7.38308 12.4819 0
6.94554 13.393 0
8.32635 10.831 0
7.25449 12.2089 0
-11.0463 17.9847 0
-13.7165 16.8531 0
-2.73708 16.3836 0
-1.77338 17.8454 0
1.23337 16.7667 0
2.82391 16.7673 0
5.91327 13.5503 0
5.61994 14.1726 0
-7.34929 16.9716 0
-7.1212 17.4407 0
-8.99027 14.5647 0
-6.2967 14.8051 0
3.55916 15.4834 0
4.35327 14.2394 0
-10.5056 20.5172 0
-3.8894 17.6276 0
14.3468 21.0269 0
11.9845 22.0632 0
-16.5188 25.0395 0
-14.0748 25.1548 0
7.97433 16.4939 0
7.14273 15.5263 0
12.4752 17.9374 0
8.70904 19.3272 0
3.56221 18.0812 0
5.33181 18.7251 0
0.863012 19.4657 0
2.94878 18.5331 0
-1.06457 25.4824 0
-3.68222 24.0543 0
-3.24352 22.383 0
-4.48598 19.5347 0
-6.10665 14.5473 0
-4.00208 13.9858 0
-9.69141 19.4424 0
-8.14272 18.3895 0
7.33203 23.3717 0
6.65324 20.5241 0
-13.1725 14.5743 0
-9.33165 15.0625 0
-9.28654 15.1807 0
-7.09152 16.2057 0
-0.437088 19.7008 0
-0.195933 19.392 0
14.5248 29.9174 0
1.93136 22.9254 0
16.8761 26.5667 0
14.7565 26.9617 0
-15.0705 20.4279 0
-12.3105 21.1662 0
-5.29473 16.0254 0
-5.13459 17.2958 0
7.42855 17.3366 0
6.28784 17.3212 0
0.98697 17.1623 0
1.5839 18.24 0
10.0617 15.6587 0
12.9548 15.9891 0
12.4594 17.8521 0
7.97343 16.8141 0
-11.9385 22.1489 0
-4.4683 19.9005 0
-2.28625 18.8573 0
-3.53202 18.7103 0
3.37452 23.2786 0
3.97995 22.5975 0
-5.72259 17.7981 0
-5.61314 18.9532 0
3.57448 17.5275 0
5.59439 16.6223 0
-2.0163 22.2671 0
-0.453096 23.6679 0
1.93031 28.5588 0
12.1515 30.0113 0
-13.8807 43.5024 0
-15.212 44.1284 0
-7.01603 49.155 0
-2.67269 24.9807 0
-14.2592 18.8037 0
-12.0696 20.7514 0
-1.87077 19.6018 0
-3.53185 20.5656 0
-7.37411 20.528 0
-5.87894 20.874 0
12.9284 25.9814 0
11.6015 28.9891 0
4.52465 20.914 0
6.12799 21.2278 0
11.0644 21.277 0
8.10267 22.2043 0
12.849 18.5373 0
10.8304 20.8237 0
-13.629 24.2988 0
-3.81704 21.7836 0
16.1017 24.6927 0
14.3077 26.0813 0
1.96857 20.5184 0
3.14216 19.7479 0
-15.7473 21.9485 0
-13.6374 23.2007 0
-1.9432 27.0992 0
3.79632 24.4864 0
0.106406 21.1167 0
1.60372 21.5069 0
-8.13495 18.5102 0
-6.82409 19.4752 0
7.75176 18.4957 0
6.24958 19.3361 0
-1.54412 21.4864 0
-2.25632 20.3203 0
12.4565 17.8623 0
7.8809 18.1064 0
-2.74384 24.6194 0
-1.49454 23.4342 0
-5.80682 21.4843 0
-4.83023 22.1116 0
-4.62241 24.2576 0
-5.21654 23.4611 0
-14.0925 18.4874 0
-10.4275 20.1381 0
5.128 24.5294 0
5.72292 23.3749 0
-0.347122 29.7289 0
7.03595 49.7818 0
-8.17334 21.4592 0
-7.88331 22.5611 0
3.3346 51.5537 0
3.24589 53.1428 0
-10.3149 27.6149 0
-8.18632 29.9273 0
9.21344 20.6224 0
7.97503 21.8766 0
14.8281 21.9848 0
12.2928 23.2365 0
5.42897 22.8033 0
6.29107 21.6268 0
2.01502 21.1671 0
3.71601 21.7374 0
3.19034 25.1035 0
5.14081 28.6357 0
4.3296 20.1661 0
5.43526 19.0966 0
1.50413 23.3422 0
1.78871 24.6203 0
12.5773 18.1533 0
9.19039 20.4933 0
-6.77009 35.9025 0
-4.75286 31.6915 0
-14.0926 27.5188 0
-16.7681 27.1957 0
-0.299761 21.6029 0
0.181501 22.9999 0
-7.29044 22.7343 0
-6.98278 23.5299 0
-9.69215 19.8113 0
-7.37406 20.5255 0
8.61946 25.6769 0
9.56266 23.8722 0
-16.3333 23.762 0
-13.8769 23.9471 0
-7.42245 24.2651 0
-7.42851 25.8434 0
4.60017 32.7355 0
8.5659 31.297 0
-14.3695 29.4707 0
-10.0337 28.6071 0
8.47862 26.1904 0
5.61699 27.5156 0
2.31805 28.2036 0
1.26122 26.4057 0
-4.87741 26.0191 0
-4.74791 26.1019 0
17.3286 40.533 0
19.0894 40.8085 0
-0.191654 24.6961 0
1.13843 25.1642 0
-9.4886 23.3812 0
-9.63328 23.8055 0
5.95964 37.5204 0
6.88635 44.063 0
-3.35066 25.8048 0
-2.807 26.9583 0
14.5196 27.4161 0
12.2467 27.7538 0
-11.5401 46.125 0
-12.807 47.4519 0
-13.0632 44.0502 0
-7.92889 35.0269 0
9.81746 23.3151 0
9.36969 22.394 0
-10.6807 25.7832 0
-9.11546 24.4312 0
12.666 25.4888 0
10.2579 25.2394 0
-1.89856 37.3106 0
-0.628838 31.3199 0
-9.81384 21.357 0
-10.3181 22.3361 0
17.1958 28.0368 0
15.0642 28.2697 0
15.2605 22.7917 0
12.9753 24.2902 0
16.368 34.3743 0
12.8748 33.8678 0
-1.8912 29.7101 0
-1.53787 28.0668 0
-15.2353 34.9401 0
-17.1733 34.6509 0
3.29333 26.078 0
2.12519 26.8348 0
7.81002 30.3364 0
7.04466 27.2734 0
5.70291 25.1329 0
4.73335 26.1625 0
-6.19138 29.0957 0
-5.59208 29.7721 0
7.81599 24.0922 0
7.62259 24.5946 0
5.92146 30.2918 0
6.2408 32.8604 0
-14.03 27.6713 0
-10.9674 27.4342 0
17.4489 36.1508 0
19.484 36.3002 0
-8.92325 26.7842 0
-6.0536 28.4469 0
-13.5914 37.2052 0
-10.3111 33.5399 0
3.25056 32.1124 0
2.7332 32.4548 0
-16.6444 26.1762 0
-13.7722 26.3479 0
-16.9201 28.5723 0
-14.7917 28.7175 0
0.0127262 41.0473 0
3.36845 43.437 0
[...]
CELL_DATA 1482
SCALARS current_Length float
LOOKUP_TABLE default
0.881812
1.0252
1.48062
1.46746
1.65327
1.46807
0.530035
1.02944
1.77835
1.09304
1.03175
1.21618
1.75369
1.48726
0.48593
0.161126
1.74753
1.0202
0.0351115
0.592046
0.564076
0.832327
0.27816
0.710634
1.29909
1.06876
0.777444
1.06211
0.852246
2.05142
0.421846
0.532013
1.9067
0.498796
1.32476
1.15319
0.771656
0.826029
1.06828
0.955721
1.32419
0.858627
2.02686
0.00249762
1.27225
1.60322
1.49874
0.896988
0.765777
1.06345
0.718747
0.883854
1.19029
1.58256
1.8741
0.977682
0.957264
1.59317
1.19974
1.44357
1.10189
0.634481
0.709601
0.519573
1.09453
0.861227
1.12452
2.19298
1.73364
1.45846
0.879458
1.06868
1.37779
0.886508
1.16162
0.928857
0.97698
1.83384
1.10792
1.13196
0.850927
1.91343
0.335529
0.629628
0.552842
0.569221
1.00364
0.0025001
1.42251
0.00248835
1.27872
1.80209
0.708633
0.715825
1.29795
1.5941
0.00251541
1.68781
0.440593
0.523338
1.22373
1.02741
0.460008
1.55968
0.181057
0.598489
1.46066
0.384632
0.848121
1.5616
1.00746
1.18295
0.982328
1.24022
1.02984
1.61529
0.734974
1.00527
1.21658
0.467225
1.48746
0.00250687
1.3851
0.884437
0.595159
2.14647
0.722664
1.32089
2.33018
0.0477745
1.08495
1.06235
2.0699
1.32477
2.57277
0.93115
2.705
1.10845
2.26749
2.28274
1.63993
3.1354
0.196657
3.24045
1.28336
2.10764
2.19319
0.816075
2.18951
2.06355
2.32672
0.455138
2.62979
3.62631
1.05713
2.59759
1.28237
2.46717
1.16202
2.04456
2.06733
1.39769
2.75002
0.944117
3.03963
0.710358
2.57099
2.64723
1.75569
2.81834
0.622635
2.76045
1.39702
2.0585
1.5564
1.93288
2.08353
0.775835
2.12882
1.02689
0.0100808
0.552435
4.09635
0.781285
1.01201
3.02462
1.51991
1.68781
1.29741
0.253387
1.12873
1.88963
1.89174
1.02715
1.0067
1.22551
1.14925
1.14205
1.72031
1.33632
1.21998
0.914506
1.03985
2.14925
1.09706
1.34492
1.37043
0.662026
1.69827
0.00250172
1.80949
1.44621
1.41257
0.815121
1.56949
1.60229
0.6542
1.42325
1.75915
1.67434
1.65161
1.88779
0.745833
1.13092
2.17791
0.51612
0.721734
2.48043
0.00249815
1.39526
1.58118
1.43907
1.81468
1.53497
0.672733
1.72568
2.7164
0.93607
1.81931
2.71082
0.694259
1.00285
1.4588
1.32817
1.0347
1.55757
0.505611
0.588928
2.86215
0.669784
0.632734
1.97327
0.61519
1.7037
2.84588
1.08192
0.956642
1.48189
0.75098
0.968154
2.67512
1.72337
0.764175
1.00841
0.146235
1.18455
1.7749
0.721906
1.74007
2.63357
2.08931
1.12899
2.02623
0.757988
1.86079
2.46653
1.16823
0.918272
1.82071
0.295872
1.05405
2.97895
1.41311
0.0233274
3.05815
1.4853
0.720055
2.10155
1.02939
0.648162
1.63641
0.899208
0.445814
3.21519
0.947297
1.03748
2.1249
1.18092
2.04327
0.900924
1.63221
1.79898
0.524344
1.70835
1.4807
1.15671
1.71833
0.575149
2.95997
0.964147
2.15086
2.04581
1.41214
1.68542
1.40199
1.14809
1.27494
0.823876
1.61131
1.50822
0.122856
0.498826
1.62526
0.76646
0.00251364
1.03755
3.55228
1.47258
0.980058
2.58701
0.980965
0.00252231
3.52912
0.108419
1.97936
3.1232
0.560719
1.12749
2.13758
1.48048
1.02069
2.00068
0.870266
1.62848
1.64389
1.55869
1.16639
0.998541
0.753577
1.59808
1.76772
0.839398
1.00121
2.80534
0.751669
1.45678
0.952764
0.562928
1.69835
1.53137
0.79923
0.365963
0.763566
0.721163
0.744853
3.46023
2.07447
2.08118
0.573834
1.16707
0.26529
1.74846
0.401803
0.838465
3.36006
0.94002
1.10875
1.47073
0.288681
0.98621
1.39417
0.670029
1.89402
2.57532
1.92128
1.46744
1.22572
2.17148
1.54433
0.37802
1.83053
0.64346
2.6893
0.948294
1.02696
2.98095
1.64421
0.0325521
1.23433
0.387023
0.925542
2.04823
1.17486
1.08692
1.26843
1.50346
1.16512
1.51384
1.12699
0.124155
2.96395
1.70965
1.2319
1.16074
0.565581
0.0476701
2.06705
0.876615
0.529946
3.15159
1.31665
1.70027
0.869377
0.357301
0.973518
2.2625
0.702048
0.87714
2.52107
1.43946
2.26291
1.80841
0.848557
0.976184
1.7422
0.875953
0.227353
1.23528
0.731986
1.12506
3.31923
1.45586
1.23267
0.0778325
2.1474
1.12773
1.01074
1.52927
0.301776
1.7457
0.572982
1.66765
2.90007
0.958468
1.32389
1.75092
1.18259
1.45029
1.59053
1.04418
1.40002
0.687999
0.808104
1.51577
0.521679
0.955328
0.320224
2.70427
1.66117
1.11124
1.47586
0.387105
1.44354
1.14016
1.07202
0.844553
2.57962
1.29093
0.965136
2.44671
0.320233
0.905763
1.27582
0.238813
0.863115
4.01442
0.553809
0.984565
1.88313
1.06151
0.761914
1.42196
1.2388
0.961936
1.68456
1.72792
1.08797
1.14863
0.805437
1.50941
2.17819
1.67069
2.26679
1.81427
1.60912
0.84879
1.70239
0.34768
0.603674
3.87178
0.126487
1.14208
2.42253
1.13441
1.90139
0.391784
0.844644
1.17486
2.37521
1.50443
0.51245
2.15608
1.81559
0.479703
2.85708
1.53102
1.28863
1.28048
0.892836
1.69851
1.14082
0.466086
1.39598
1.23197
0.519965
0.988223
2.91185
0.0106247
0.754902
4.60452
1.05077
0.366223
1.63112
0.852601
1.26083
1.25442
1.48575
0.899708
0.911262
0.773313
1.26833
1.1603
1.0683
0.550943
2.21346
1.24981
0.921382
1.06734
1.5442
0.532485
0.204358
0.916518
1.96874
1.47115
0.653784
0.368279
1.67177
0.357531
1.58139
2.93057
1.43709
0.829538
0.815402
0.00250905
1.71396
1.53469
1.38289
1.16081
1.75349
0.772923
0.878093
1.63376
1.21025
1.39883
2.02969
1.78308
0.427571
3.05004
0.430272
1.25093
1.40369
2.02765
0.988222
2.26863
1.52657
1.23016
1.40389
0.961204
1.39374
2.45356
1.40965
1.27937
1.24757
1.51659
0.533535
1.54733
0.120903
1.31865
1.62776
1.26801
1.25473
1.72128
0.912438
1.29891
1.36635
0.0774028
0.410156
4.58213
1.09541
1.27843
1.72201
0.614504
1.06495
1.1607
0.676994
0.596235
0.993743
0.0100923
0.804679
4.01961
1.33237
0.64275
1.29875
1.54983
0.656458
1.39295
1.22714
0.617645
1.13945
1.59955
2.44287
1.59159
1.62076
0.15183
1.66389
1.62944
0.351616
1.76259
0.915465
0.741363
2.82744
1.46357
0.431045
1.4586
0.650322
1.15407
1.79404
0.864863
0.56298
0.979913
1.25891
0.385622
1.53824
0.596862
1.48256
1.30943
0.470389
0.131171
4.11666
0.265929
1.46056
1.79159
1.34379
1.33684
2.69494
0.633601
1.3662
1.47756
1.93999
1.76758
0.85302
0.368879
1.18559
2.42562
0.833508
0.868
1.21952
1.90579
0.783862
2.4634
0.856638
1.82683
0.738513
1.13206
1.22234
0.580665
0.863438
1.03128
2.22043
0.28564
1.21714
1.27275
0.525864
1.23663
0.964641
0.849473
1.42849
0.153705
0.85873
1.62561
1.78226
1.06087
0.847759
1.41006
1.80266
1.70115
0.448222
0.884291
1.28883
1.04616
1.0671
0.875216
1.27518
1.01248
0.728219
2.29783
1.20682
1.68412
1.83461
0.984072
1.00633
1.01039
0.612595
1.28116
1.02413
0.757821
0.812207
1.10439
0.558092
1.6958
1.91953
1.50616
1.56972
1.2939
1.64368
1.33434
1.10134
1.35181
0.988009
2.14434
1.81242
0.568994
2.73269
0.651837
1.4688
0.901154
1.37018
1.04906
0.752866
1.36713
1.79589
1.95939
0.57061
1.38232
1.3919
1.10598
1.44807
1.01679
1.99372
1.61612
0.155399
0.66325
1.189
0.903687
1.76048
1.4714
0.538338
1.88909
1.73853
0.234997
0.16487
0.595245
2.06057
1.20316
2.0759
2.04065
1.39757
1.38662
1.59855
0.500859
1.37712
1.80014
1.48648
1.09116
0.620397
1.14363
0.456466
2.87731
1.38491
1.29413
2.13328
0.860854
1.11248
1.31668
1.56146
1.72354
0.377714
1.47216
1.46908
0.624362
0.94075
1.38287
1.89874
0.628877
1.24923
0.972288
0.00250148
1.69377
1.46105
0.633164
0.887663
1.61009
1.56346
1.04143
1.8127
1.80178
0.701032
1.40542
0.776832
0.472276
2.05347
0.179922
1.43752
1.81332
0.517052
1.26916
0.632569
2.37548
2.2409
0.871206
1.05135
1.14423
1.07211
0.659818
1.17596
1.53176
0.703763
0.535059
3.29834
1.17627
1.10416
0.748591
1.3048
2.14227
1.97555
0.266434
0.810119
2.87535
0.642767
1.2279
2.03357
1.75284
1.56325
0.990038
1.74617
1.67109
0.942633
0.688929
1.0019
1.64521
0.455574
1.2023
2.37938
0.0635412
1.49333
0.463174
1.43356
0.640663
2.3212
1.03222
1.05739
1.10957
1.02809
1.25306
1.03539
0.640096
0.846696
0.591737
1.41686
0.429018
1.01451
1.20917
0.453487
2.64543
1.1874
0.650018
1.17418
1.05201
1.03762
1.96385
1.13465
1.42691
0.901868
0.746286
1.70182
1.81509
0.985157
1.21011
2.16396
0.819591
1.13927
2.04435
0.771413
1.29135
2.00245
0.836843
1.84675
2.37715
0.921518
1.54516
1.39312
0.963311
1.47739
0.185325
0.475828
0.763214
2.46287
1.52134
1.31427
0.7407
0.827298
1.09764
1.56319
1.7987
1.69572
1.20099
1.05373
1.31844
1.15873
0.249002
1.05936
1.91423
1.16949
1.88332
1.31782
0.333159
0.882889
1.49966
0.278814
0.394905
0.695581
1.42397
0.650185
0.826625
1.33728
0.44923
1.9196
1.1143
1.09772
0.366056
2.15081
1.09689
1.38946
1.37779
0.832892
2.27652
1.3554
1.31395
1.32064
1.28442
0.0829694
1.69577
2.06209
1.51609
0.998675
1.33566
0.622777
1.04181
1.19798
1.70786
0.688649
1.28231
0.555316
0.832483
1.24909
0.890681
1.26286
1.16162
1.38931
1.88084
1.01503
1.45372
2.10721
2.10864
1.23225
2.02994
1.7936
1.39935
0.581771
1.21161
0.874518
0.871446
0.682426
0.824354
1.25435
1.99782
1.75681
0.108758
2.00679
2.13763
1.60417
1.19133
1.531
1.0102
1.55502
1.22016
0.409674
1.76954
1.75367
0.975945
1.38589
0.608965
1.84968
1.38166
0.853686
2.1239
1.22018
0.0901386
3.05716
1.03611
1.64807
1.62034
1.42084
0.228922
1.2678
1.3763
1.30955
1.58813
0.967148
1.09644
0.875343
2.15486
1.17913
2.05276
1.06387
0.0351742
2.60509
0.715699
0.8171
0.620489
1.41904
0.301517
1.10398
0.268261
1.11062
2.17708
1.9751
1.36933
0.356709
0.670654
1.38127
1.65776
1.42866
1.00542
1.23298
0.957095
1.56945
1.73889
0.476862
1.14252
1.05908
0.837332
0.742413
1.1739
1.47218
1.32795
0.88121
1.05251
1.53015
1.65206
1.26243
0.948958
1.40859
1.0297
0.911529
1.2688
2.01272
1.02938
1.65376
0.83607
0.966022
2.39221
1.23232
0.763388
1.42446
1.95091
1.61583
1.28523
0.364943
0.820437
1.31479
1.53178
0.878121
0.704004
1.55934
1.55366
1.01443
1.40207
0.746043
1.26881
1.17908
1.97005
1.20538
1.21253
1.22959
0.596135
0.965011
1.60141
1.10979
1.00366
1.12829
0.691413
1.08726
1.2928
2.00378
0.652876
1.92788
1.75015
1.55682
1.11135
1.36798
0.487395
0.749605
1.47447
0.656171
1.07575
1.88439
0.719483
0.9741
2.8466
1.18272
1.36625
1.34036
1.88853
0.993211
1.55548
0.716296
0.388908
0.836311
1.53123
1.07863
0.720238
1.17821
1.34611
1.48395
1.66908
0.532481
1.9576
1.38812
0.609994
1.48654
0.769454
0.604543
1.12233
1.23171
1.29961
1.25327
1.87927
1.40758
0.543154
1.43443
0.864553
1.20295
0.780662
1.06394
1.54457
0.833968
0.581406
3.27941
1.09476
1.47043
1.90059
0.892449
0.623352
1.55081
2.00236
1.31883
1.1779
1.40424
1.32464
1.94494
1.231
0.701815
0.690134
1.03729
1.74289
1.64196
1.56548
1.13854
0.843904
1.13429
0.733708
0.996388
1.50607
0.710355
1.99105
1.21898
0.350213
1.46964
0.718612
1.3593
0.81496
1.23572
0.224731
1.4458
1.39608
1.16979
1.05661
0.853204
0.991831
1.81484
0.958893
1.45359
1.99789
1.5813
0.681599
2.08236
1.31104
0.448059
2.91754
0.770059
0.410547
1.75337
0.989668
0.46443
1.68207
0.929578
1.60193
1.94742
0.617745
1.57502
1.15848
1.35897
1.52779
1.27131
1.08075
1.05361
1.46957
1.00907
0.765311
2.03036
1.19921
1.01799
1.04573
1.15113
1.02761
1.3246
1.97827
1.51577
1.31426
1.46868
1.01223
1.27665
1.29133
0.895478
1.31305
0.976453
0.889285
1.41017
1.57211
0.605112
0.552971
1.38182
0.924598
0.960879
1.40175
1.07116
1.03239
0.59687
0.352997
2.47588
0.563699
1.31598
1.78481
0.806987
0.971805
1.12913
1.87827
1.69067
0.788199
0.418484
1.39323
1.30295
2.14204
1.52186
0.00134074
0.624493
0.689561
1.39542
0.444676
0.443398
1.94375
0.980033
0.652019
1.53519
1.62355
1.25465
0.858428
1.50895
1.74107
1.25335
0.853887
1.27211
1.19444
0.639576
1.1
1.57438
0.507675
1.53359
0.493862
0.500595
1.83425
2.0416
0.988386
1.87616
2.24988
0.610161
1.45964
2.24646
1.86848
1.38424
1.48411
0.868125
0.896088
1.28358
0.746782
1.28955
1.18977
0.994892
0.849692
1.3431
0.792771
0.919419
1.84379
1.62735
1.63257
1.55302
1.52017
1.4272
0.957139
0.759104
1.05906
1.38796
1.13026
1.48848
1.49541
1.14404
1.36211
1.42309
0.357108
0.855993
1.71069
1.1033
0.811182
1.56385
1.30383
1.09091
1.61516
0.658364
0.890592
1.85517
2.05176
0.670263
1.10471
0.803371
0.767671
2.30263
1.08966
0.808919
1.69028
1.10171
1.69669
1.87612
1.41794
0.709107
2.16625
1.03224
0.515392
1.74125
1.46382
1.38697
0.765485
1.09211
0.936922
1.60641
0.783391
0.774109
1.30832
1.08161
0.973323
2.09671
1.86151
2.01291
0.940844
1.02234
0.936782
1.1404
1.06736
1.31756
1.55806
0.833686
0.981329
1.46756
1.21027
0.573958
1.45977
0.627266
1.02143
1.56928
0.892188
0.82739
1.81249
0.401731
1.10768
1.63767
1.35629
1.05928
1.59521
1.29154
0.80457
2.40429
1.96912
1.88717
0.960601
1.16792
0.894286
1.91305
1.21757
1.65537
1.12444
1.44037
0.715834
2.04352
1.35687
0.829001
1.45023
0.650272
1.15224
2.15301
1.37431
1.18455
1.49598
1.03827
0.759281
2.31651
0.372568
1.16389
2.68926
0.937726
1.25662
1.21774
1.36235
1.16539
1.67806
1.29188
1.02927
1.84331
3.29045
3.2758
3.28155
166
232
3.24982
3.31139
3.3316
3.35118
55
217
31
412
398
102

SCALARS edge_force float
LOOKUP_TABLE default
0.5
0.5
0.5
0.5
0.5
0.5
0.5
0.5
0.5
0.5
0.5
0.5
0.5
0.5
0.5
0.5
0.5
0.5
0.5
0.5
0.5
0.5
0.5
0.5
0.5
0.5
0.5
0.5
0.5
0.5
0.5
0.5
0.5
0.5
0.5
0.5
0.5
0.5
0.5
0.5
0.5
0.5
0.5
0.5
0.5
0.5
0.5
0.5
0.5
0.5
0.5
0.5
0.5
0.5
0.5
0.5
0.5
0.5
0.5
0.5
0.5
0.5
0.5
0.5
0.5
0.5
0.5
0.5
0.5
0.5
0.5
0.5
0.5
0.5
0.5
0.5
0.5
0.5
0.5
0.5
0.5
0.5
0.5
0.5
0.5
0.5
0.5
0.5
0.5
0.5
0.5
0.5
0.5
0.5
0.5
0.5
0.5
0.5
0.5
0.5
0.5
0.5
0.5
0.5
0.5
0.5
0.5
0.5
0.5
0.5
0.5
0.5
0.5
0.5
0.5
0.5
0.5
0.5
0.5
0.5
0.5
0.5
0.5
0.5
0.5
0.5
0.5
0.5
0.5
0.5
0.5
0.5
0.5
2
0.5
2
0.5
2
0.5
0.5
2
0.5
2
0.5
2
0.5
0.5
2
0.5
2
0.5
2
0.5
0.5
2
0.5
2
0.5
2
0.5
0.5
2
0.5
2
0.5
2
0.5
0.5
2
0.5
2
0.5
2
0.5
2
2
2
2
2
2
2
0.5
0.5
2
0.5
0.5
0.5
0.5
0.5
0.5
0.5
0.5
0.5
0.5
0.5
0.5
0.5
0.5
0.5
0.5
0.5
0.5
0.5
0.5
0.5
0.5
0.5
0.5
0.5
0.5
0.5
0.5
0.5
0.5
0.5
0.5
0.5
0.5
0.5
0.5
0.5
0.5
0.5
0.5
0.5
0.5
0.5
0.5
0.5
0.5
0.5
0.5
0.5
0.5
0.5
2
0.5
0.5
2
0.5
0.5
0.5
0.5
0.5
0.5
0.5
0.5
0.5
0.5
0.5
0.5
0.5
0.5
2
0.5
0.5
0.5
0.5
2
0.5
0.5
0.5
0.5
0.5
0.5
0.5
0.5
0.5
2
0.5
2
0.5
0.5
0.5
2
0.5
0.5
0.5
0.5
0.5
2
0.5
2
0.5
0.5
2
0.5
0.5
0.5
0.5
0.5
2
0.5
0.5
0.5
0.5
0.5
0.5
0.5
0.5
0.5
0.5
0.5
0.5
0.5
0.5
2
0.5
0.5
0.5
0.5
0.5
0.5
0.5
0.5
0.5
0.5
0.5
0.5
0.5
0.5
0.5
0.5
0.5
0.5
2
0.5
0.5
2
0.5
2
0.5
0.5
2
0.5
0.5
0.5
0.5
0.5
0.5
0.5
0.5
0.5
0.5
0.5
0.5
0.5
0.5
0.5
0.5
0.5
2
0.5
0.5
0.5
0.5
0.5
0.5
0.5
0.5
0.5
0.5
0.5
2
0.5
0.5
0.5
0.5
0.5
0.5
0.5
0.5
0.5
2
0.5
0.5
0.5
0.5
0.5
0.5
0.5
0.5
2
0.5
0.5
0.5
0.5
0.5
0.5
0.5
2
0.5
0.5
0.5
2
0.5
0.5
0.5
0.5
0.5
0.5
0.5
0.5
0.5
0.5
0.5
0.5
0.5
2
0.5
0.5
0.5
0.5
0.5
0.5
0.5
0.5
2
0.5
0.5
0.5
0.5
0.5
0.5
0.5
0.5
0.5
0.5
0.5
0.5
2
0.5
0.5
0.5
0.5
0.5
0.5
0.5
2
0.5
0.5
0.5
0.5
0.5
0.5
0.5
0.5
0.5
0.5
0.5
0.5
2
0.5
0.5
0.5
0.5
0.5
0.5
0.5
0.5
0.5
0.5
0.5
0.5
0.5
0.5
0.5
0.5
0.5
0.5
0.5
0.5
0.5
0.5
2
0.5
0.5
2
0.5
0.5
0.5
0.5
0.5
2
0.5
0.5
0.5
0.5
0.5
0.5
0.5
0.5
0.5
0.5
0.5
0.5
0.5
0.5
0.5
0.5
0.5
0.5
0.5
0.5
0.5
0.5
0.5
2
0.5
0.5
0.5
0.5
0.5
0.5
0.5
0.5
0.5
0.5
0.5
2
0.5
0.5
2
0.5
0.5
0.5
0.5
0.5
0.5
0.5
0.5
0.5
0.5
0.5
0.5
2
0.5
2
0.5
0.5
0.5
0.5
0.5
0.5
0.5
0.5
0.5
0.5
0.5
0.5
0.5
0.5
0.5
0.5
0.5
0.5
0.5
0.5
0.5
0.5
0.5
0.5
2
0.5
0.5
0.5
0.5
2
0.5
0.5
0.5
0.5
0.5
0.5
0.5
0.5
0.5
0.5
0.5
0.5
0.5
0.5
0.5
0.5
0.5
2
0.5
0.5
0.5
0.5
0.5
2
0.5
0.5
0.5
0.5
0.5
2
0.5
0.5
0.5
0.5
0.5
0.5
0.5
0.5
0.5
0.5
0.5
0.5
0.5
0.5
0.5
0.5
0.5
2
0.5
0.5
0.5
0.5
0.5
0.5
0.5
0.5
0.5
0.5
0.5
2
0.5
0.5
0.5
0.5
0.5
0.5
0.5
0.5
0.5
0.5
0.5
0.5
2
0.5
0.5
0.5
0.5
0.5
0.5
0.5
2
0.5
0.5
0.5
0.5
0.5
0.5
0.5
0.5
0.5
0.5
0.5
0.5
0.5
0.5
0.5
0.5
0.5
2
0.5
0.5
0.5
0.5
0.5
0.5
2
0.5
0.5
0.5
0.5
0.5
0.5
0.5
0.5
0.5
0.5
0.5
0.5
0.5
2
0.5
0.5
0.5
0.5
0.5
0.5
0.5
0.5
0.5
0.5
0.5
0.5
0.5
0.5
0.5
0.5
0.5
0.5
0.5
0.5
0.5
2
0.5
0.5
0.5
0.5
0.5
0.5
0.5
0.5
0.5
0.5
0.5
0.5
0.5
0.5
0.5
0.5
0.5
2
0.5
0.5
0.5
0.5
0.5
0.5
0.5
0.5
0.5
0.5
0.5
0.5
0.5
0.5
0.5
0.5
0.5
0.5
0.5
2
0.5
0.5
2
0.5
0.5
0.5
0.5
0.5
0.5
0.5
0.5
0.5
2
0.5
0.5
0.5
0.5
0.5
0.5
0.5
0.5
0.5
0.5
0.5
0.5
0.5
0.5
0.5
0.5
0.5
0.5
0.5
0.5
0.5
0.5
0.5
2
0.5
0.5
0.5
0.5
0.5
0.5
0.5
0.5
0.5
0.5
2
0.5
0.5
2
0.5
0.5
0.5
0.5
0.5
0.5
0.5
0.5
0.5
0.5
0.5
0.5
0.5
0.5
0.5
0.5
0.5
0.5
0.5
0.5
0.5
0.5
0.5
2
0.5
0.5
0.5
0.5
0.5
0.5
0.5
0.5
0.5
0.5
0.5
0.5
0.5
0.5
0.5
0.5
0.5
0.5
0.5
0.5
0.5
0.5
0.5
2
0.5
0.5
0.5
0.5
0.5
0.5
2
0.5
2
0.5
0.5
0.5
0.5
0.5
0.5
0.5
0.5
0.5
0.5
0.5
0.5
0.5
0.5
0.5
0.5
0.5
0.5
0.5
0.5
2
0.5
0.5
0.5
0.5
0.5
0.5
0.5
0.5
0.5
0.5
0.5
0.5
0.5
0.5
2
0.5
0.5
0.5
0.5
0.5
0.5
0.5
0.5
0.5
0.5
0.5
2
0.5
0.5
0.5
0.5
0.5
0.5
0.5
0.5
0.5
0.5
0.5
0.5
2
0.5
0.5
0.5
0.5
0.5
0.5
0.5
0.5
0.5
0.5
0.5
0.5
0.5
0.5
0.5
0.5
0.5
0.5
0.5
0.5
0.5
0.5
0.5
0.5
0.5
0.5
0.5
0.5
0.5
0.5
0.5
0.5
0.5
0.5
0.5
0.5
0.5
0.5
0.5
0.5
0.5
0.5
0.5
2
0.5
0.5
2
0.5
0.5
0.5
0.5
0.5
0.5
0.5
0.5
0.5
0.5
0.5
0.5
0.5
0.5
0.5
0.5
0.5
0.5
0.5
0.5
0.5
0.5
0.5
0.5
2
0.5
0.5
2
0.5
2
0.5
0.5
0.5
0.5
0.5
0.5
0.5
0.5
0.5
0.5
0.5
0.5
0.5
0.5
0.5
0.5
0.5
0.5
0.5
0.5
0.5
0.5
0.5
0.5
0.5
0.5
0.5
0.5
0.5
0.5
0.5
0.5
2
0.5
0.5
0.5
0.5
0.5
0.5
0.5
0.5
0.5
0.5
0.5
0.5
0.5
0.5
2
0.5
0.5
0.5
2
0.5
0.5
0.5
0.5
0.5
0.5
0.5
0.5
0.5
0.5
0.5
0.5
0.5
0.5
0.5
0.5
0.5
0.5
0.5
0.5
2
0.5
0.5
0.5
0.5
0.5
0.5
0.5
0.5
0.5
0.5
0.5
0.5
0.5
0.5
0.5
0.5
0.5
0.5
0.5
2
0.5
0.5
0.5
2
0.5
0.5
0.5
0.5
0.5
0.5
0.5
0.5
0.5
0.5
0.5
0.5
0.5
0.5
0.5
0.5
0.5
0.5
0.5
0.5
0.5
0.5
0.5
0.5
0.5
0.5
0.5
0.5
0.5
0.5
0.5
0.5
2
0.5
0.5
0.5
0.5
0.5
0.5
0.5
0.5
0.5
0.5
0.5
0.5
0.5
2
0.5
0.5
0.5
0.5
0.5
2
0.5
0.5
0.5
0.5
0.5
0.5
0.5
0.5
0.5
0.5
0.5
2
0.5
0.5
0.5
0.5
0.5
0.5
0.5
0.5
0.5
0.5
0.5
0.5
0.5
0.5
0.5
0.5
0.5
0.5
0.5
0.5
2
0.5
0.5
0.5
0.5
0.5
0.5
0.5
0.5
0.5
0.5
0.5
2
0.5
0.5
0.5
0.5
0.5
0.5
0.5
0.5
0.5
0.5
0.5
0.5
0.5
0.5
2
0.5
0.5
0.5
0.5
0.5
0.5
0.5
0.5
0.5
0.5
0.5
0.5
0.5
0.5
0.5
0.5
0.5
0.5
2
0.5
2
0.5
0.5
2
0.5
0.5
0.5
0.5
0.5
0.5
0.5
0.5
0.5
2
0.5
0.5
0.5
0.5
0.5
0.5
0.5
0.5
0.5
0.5
0.5
0.5
0.5
0.5
0.5
0.5
0.5
0.5
0.5
0.5
0.5
0.5
0.5
0.5
0.5
0.5
0.5
0.5
0.5
0.5
0.5
0.5
0.5
0.5
0.5
0.5
0.5
0.5
0.5
0.5
0.5
0.5
0.5
0.5
0.5
0.5
0.5
0.5
0.5
0.5
0.5
0.5
0.5
0.5
0.5
0.5
0.5
0.5
0.5
0.5
0.5
0.5
0.5
0.5
0.5
0.5
0.5
0.5
0.5
0.5
0.5
0.5
0.5
0.5
0.5
0.5
0.5
0.5
0.5
0.5
0.5
0.5
0.5
2
0.5
0.5
2
0.5
0.5
2
0.5
2
0.5
0.5
0.5
0.5
0.5
0.5
0.5
0.5
0.5
0.5
0.5
0.5
0.5
0.5
0.5
0.5
0.5
0.5
0.5
0.5
0.5
0.5
0.5
0.5
0.5
0.5
0.5
0.5
0.5
0.5
0.5
0.5
0.5
0.5
0.5
0.5
0.5
0.5
0.5
0.5
0.5
0.5
0.5
0.5
0.5
0.5
0.5
0.5
0.5
0.5
0.5
2
0.5
2
0.5
0.5
0.5
0.5
0.5
0.5
0.5
0.5
0.5
0.5
0.5
0.5
0.5
0.5
2
0.5
0.5
0.5
0.5
0.5
0.5
0.5
0.5
0.5
0.5
0.5
0.5
0.5
0.5
0.5
0.5
0.5
0.5
0.5
0.5
0.5
0.5
0.5
0.5
0.5
0.5
0.5
0.5
0.5
2
0.5
0.5
0.5
0.5
0.5
0.5
0.5
0.5
0.5
0.5
0.5
0.5
0.5
0.5
0.5
0.5
0.5
0.5
0.5
0.5
0.5
0.5
0.5
2
0.5
0.5
0.5
2
0.5
0.5
0.5
0.5
0.5
0.5
0.5
0.5
0.5
0.5
0
0
0
0
0
0
0
0
0
0
0
0
0
0
0
