# vtk DataFile Version 3.0
2D-vertex
ASCII
DATASET UNSTRUCTURED_GRID

POINTS 668 float
0.145155 -3.16034 0
2.59535 -3.04157 0
3.01888 -2.10611 0
2.03114 -1.00013 0
-0.228816 -0.774046 0
-0.997655 -2.2399 0
3.54618 -2.09164 0
4.1507 -1.26004 0
3.27502 0.290796 0
2.21647 0.015054 0
1.08697 1.31416 0
-0.587369 1.85012 0
-1.39402 0.601713 0
-1.55249 0.567935 0
-2.12299 -1.0842 0
-1.64124 -1.98716 0
4.71775 -1.43966 0
5.5605 -0.592568 0
3.78464 1.01456 0
3.50901 0.957456 0
2.66845 1.94949 0
1.59594 1.90166 0
1.07711 5.52217 0
0.191859 5.5255 0
-0.676536 3.69063 0
-1.92521 2.82985 0
-1.89937 0.928528 0
-3.20051 0.676051 0
-3.74335 -0.342257 0
-3.46264 -1.06266 0
6.62902 -0.622487 0
7.27644 0.0740592 0
7.15172 1.39372 0
4.97827 2.65027 0
5.46883 3.21104 0
3.17132 4.62532 0
2.46438 5.92027 0
1.56017 6.11202 0
0.702573 9.24302 0
-0.918754 9.33157 0
-0.659907 6.36494 0
-2.21537 5.47788 0
-3.29474 3.97833 0
-4.26056 4.03711 0
-5.02916 2.65217 0
-6.44818 2.37754 0
-6.76113 1.31775 0
-5.28273 -0.0694482 0
7.5964 1.99894 0
7.29392 3.05486 0
6.55894 3.50515 0
5.91206 5.58484 0
3.60025 6.86052 0
3.55951 7.69918 0
2.14727 9.32374 0
2.70578 10.015 0
-1.89296 10.6845 0
-1.82781 9.84779 0
-3.07278 8.57992 0
-2.78957 6.4606 0
-4.44082 6.8182 0
-5.84015 5.5393 0
-7.79275 4.0955 0
-7.65973 3.56084 0
8.23124 3.42893 0
8.23128 3.43143 0
6.83615 5.52712 0
7.31539 6.70923 0
6.11477 8.0205 0
6.3524 8.68664 0
5.64358 9.70695 0
5.43253 10.1519 0
-2.6327 12.9625 0
-2.85978 12.699 0
-6.15343 9.98882 0
-5.48265 9.16729 0
-6.21375 7.84207 0
-6.12753 7.66423 0
-8.77286 4.61803 0
-8.62853 4.26497 0
9.7799 3.67343 0
10.1357 4.61155 0
9.37426 5.6282 0
10.5644 6.00412 0
10.3323 7.53605 0
10.5563 8.24501 0
9.98163 12.9514 0
11.0411 15.0793 0
-9.799 15.1876 0
-9.78226 15.1264 0
-10.1457 9.228 0
-9.85102 8.69534 0
-10.1946 8.07175 0
-9.4608 6.9637 0
-10.2808 5.72141 0
-9.83274 4.73849 0
3.4635 -4.92562 0
4.67882 -4.40978 0
5.52124 -4.02837 0
7.91062 -2.49993 0
9.24075 -1.10133 0
10.6371 1.19227 0
10.7307 1.35151 0
11.4621 2.39642 0
12.3116 4.29655 0
12.5472 5.06935 0
12.8576 8.57986 0
13.607 15.4252 0
-13.2733 15.6845 0
-12.7394 9.20216 0
-12.6607 7.92436 0
-12.304 5.38496 0
-11.4478 3.43989 0
-10.601 2.33595 0
-10.0081 1.6126 0
-9.12674 0.288756 0
-7.23354 -1.8702 0
-5.18975 -3.29973 0
-3.1153 -4.32876 0
-0.135406 -5.20562 0
12.7715 10.1464 0
8.77931 10.4038 0
-13.0051 11.7154 0
-10.1566 12.4915 0
-0.436927 3.35191 0
0.871642 3.41912 0
-1.93287 5.43573 0
-1.22999 3.69583 0
4.44697 4.78863 0
4.87765 5.69816 0
0.41881 10.7968 0
0.181729 9.75682 0
-1.16194 7.70263 0
-2.37834 7.43203 0
5.91119 5.58717 0
5.1514 7.56797 0
4.18617 8.09862 0
4.22474 9.4032 0
2.2495 10.9797 0
2.2474 10.9784 0
-2.46248 10.9659 0
-4.02576 9.32305 0
-3.58794 8.60953 0
-4.55473 7.40055 0
1.18938 0.670019 0
-0.283826 -0.290453 0
6.33326 1.66464 0
5.19894 0.157271 0
4.97629 2.6518 0
2.97403 3.5167 0
-9.02256 10.8274 0
-5.9611 10.6543 0
2.97153 3.5168 0
1.54874 4.2329 0
-9.46809 6.90714 0
-8.0586 6.28095 0
-1.02805 -2.25458 0
-1.5016 -4.93559 0
10.7924 34.4832 0
12.23 35.6469 0
0.962543 -2.83697 0
1.10655 -1.38274 0
2.53667 8.11581 0
1.33292 7.1081 0
8.58398 9.92033 0
5.64408 9.70942 0
9.72403 20.7623 0
0.17875 12.6323 0
-2.91323 -1.32886 0
-3.67633 -4.07866 0
-4.47707 1.72176 0
-5.3938 0.555323 0
-5.82285 -2.91162 0
-4.70475 -0.473027 0
0.391868 7.61427 0
-0.552987 7.19512 0
9.33866 5.48751 0
7.71543 4.74816 0
5.36082 -1.11955 0
7.02975 -3.16418 0
1.41273 -5.3107 0
1.49649 -3.28201 0
-6.34146 0.693313 0
-7.97231 -1.16738 0
-5.46086 4.43753 0
-6.80291 3.22047 0
7.41967 1.51679 0
9.83689 -0.238978 0
-12.542 6.76922 0
-9.48085 6.93137 0
12.9094 7.09828 0
10.8056 7.00323 0
-2.89005 3.03382 0
-3.82691 1.69805 0
-9.59886 1.04438 0
-6.79954 2.65127 0
-3.63113 6.28507 0
-4.42166 4.33691 0
-6.88637 6.45096 0
-6.47601 5.64175 0
8.31181 6.84493 0
8.54186 7.33131 0
-0.799035 12.5048 0
-0.635592 11.5197 0
12.7762 10.1554 0
10.2149 11.5237 0
10.1751 13.8703 0
2.01182 11.4456 0
7.99262 8.58804 0
9.27448 9.28501 0
-7.37209 7.96068 0
-7.70694 8.72842 0
-2.25632 14.7589 0
0.906074 13.8763 0
-10.0786 13.0051 0
-4.142 12.5924 0
9.27332 9.28724 0
12.7733 9.63677 0
-10.849 14.2184 0
-13.3437 14.6735 0
-12.7865 10.1948 0
-9.2765 10.4121 0
13.182 18.2011 0
10.5408 16.6856 0
8.4672 10.8525 0
6.34923 11.0769 0
-9.27651 10.4096 0
-7.38383 9.67358 0
2.4737 14.3731 0
4.22598 12.7689 0
-4.47909 11.0832 0
-3.68769 10.3635 0
4.98317 12.5129 0
4.0321 11.0219 0
13.184 11.8494 0
10.4474 12.0789 0
-2.88837 14.3675 0
-4.63069 13.552 0
-11.6957 28.7956 0
0.13082 15.3943 0
-6.57284 11.244 0
-4.52331 12.864 0
-12.8606 10.9123 0
-9.49358 11.4623 0
6.36811 16.455 0
8.4068 14.7135 0
-1.01367 14.1972 0
-0.604746 12.712 0
-10.5693 18.5288 0
-13.5229 17.9433 0
7.42074 37.3637 0
2.42834 15.3815 0
-3.06517 16.8473 0
-10.4582 18.9254 0
-10.8142 13.5021 0
-13.225 12.7738 0
-6.69096 14.9892 0
-6.16367 13.8328 0
-6.44459 11.9204 0
-7.30265 12.9026 0
13.4833 13.5934 0
10.9664 14.4021 0
-11.1696 20.2769 0
-13.8443 20.7833 0
6.1523 12.1454 0
4.98451 12.5108 0
10.4306 15.7557 0
8.48387 15.3586 0
4.07346 13.8268 0
6.88813 15.9479 0
-2.04583 16.0274 0
-0.399014 16.3307 0
14.378 22.0238 0
11.8408 22.5158 0
0.392939 15.3397 0
1.42441 16.073 0
12.2689 24.4937 0
4.18531 15.9448 0
13.3166 12.7112 0
10.2971 13.3275 0
-8.53374 14.5629 0
-8.59348 13.6937 0
-9.39293 11.777 0
-7.31512 12.5446 0
-10.153 18.0479 0
-6.33363 16.6311 0
4.66837 38.8535 0
4.71303 40.7853 0
1.8375 13.7391 0
2.5807 12.2275 0
-3.94836 15.9791 0
-3.9221 14.9516 0
-13.3778 17.014 0
-10.3987 17.4305 0
0.0151996 17.7207 0
-0.182406 17.6027 0
7.87352 13.0763 0
7.47984 13.9479 0
8.7316 11.3837 0
7.71664 12.7672 0
-11.2173 19.5858 0
-13.7075 18.9664 0
-2.58232 16.8139 0
-1.60582 18.1337 0
1.71938 17.0812 0
3.55969 17.0513 0
6.45271 14.1152 0
6.22698 14.6135 0
-7.6047 18.0907 0
-7.39479 18.4237 0
-9.29281 15.8275 0
-6.55456 15.9337 0
4.15649 15.8816 0
4.84617 14.7131 0
-10.5109 22.1423 0
-3.83238 18.2007 0
14.709 23.395 0
12.6322 23.7249 0
-14.2821 28.9701 0
-12.3936 28.313 0
8.89103 17.2125 0
7.88869 16.0812 0
13.2206 19.1184 0
9.93909 19.9598 0
4.4276 18.2798 0
6.33568 19.0426 0
1.54321 19.4498 0
3.78599 18.7227 0
-0.508739 25.2088 0
-3.12917 24.0656 0
-2.92756 22.364 0
-4.4695 20.0381 0
-6.32615 15.593 0
-4.11464 14.8549 0
-9.79799 20.8549 0
-8.34376 19.5611 0
8.03371 23.7028 0
7.69384 20.8475 0
-13.2785 16.1287 0
-9.6668 16.4351 0
-9.6475 16.4785 0
-7.41599 17.3437 0
0.0578019 19.6481 0
0.278977 19.3665 0
10.9566 33.5595 0
2.4715 22.6001 0
14.8343 30.9573 0
13.138 30.3493 0
-14.4434 23.4011 0
-11.9428 23.4074 0
-5.46169 16.9289 0
-5.22818 17.961 0
8.4704 17.9019 0
7.24999 17.8109 0
1.58304 17.301 0
2.1752 18.3597 0
10.7082 16.2686 0
13.5365 16.4188 0
13.1103 18.5259 0
8.90085 17.5003 0
-11.3492 24.2133 0
-4.44099 20.2036 0
-1.99162 19.0369 0
-3.48509 18.994 0
4.01822 23.0849 0
4.69154 22.4525 0
-5.87435 18.6277 0
-5.66771 19.5923 0
4.43547 17.8983 0
6.39968 16.9445 0
-1.63666 22.0997 0
0.00563957 23.3526 0
1.95604 28.6146 0
9.80658 32.5044 0
-5.98544 37.4686 0
-7.03805 39.2315 0
-1.17086 38.4341 0
-2.0457 24.8891 0
-14.0652 21.5622 0
-11.7563 22.6856 0
-1.62614 19.5898 0
-3.42472 20.7361 0
-7.38644 21.4727 0
-5.80817 21.5087 0
12.4345 28.506 0
10.2753 30.9126 0
5.42967 20.941 0
7.12512 21.4456 0
11.7964 22.6083 0
8.96887 22.7693 0
13.7055 20.3327 0
11.5307 21.8778 0
-12.2298 27.1069 0
-3.53574 21.8813 0
15.136 28.7564 0
13.1975 29.0166 0
2.68841 20.545 0
3.92135 19.7689 0
-14.678 25.4485 0
-12.525 25.8821 0
-1.22751 27.0552 0
4.293 24.2109 0
0.544036 20.8828 0
2.23205 21.3432 0
-8.33071 19.627 0
-6.98188 20.3699 0
9.03131 18.9893 0
7.4317 19.7099 0
-1.23389 21.304 0
-1.94929 20.2984 0
13.1085 18.5359 0
9.05169 18.9346 0
-2.17444 24.4852 0
-1.04046 23.1843 0
-5.65931 21.9799 0
-4.58629 22.415 0
-4.04007 24.4265 0
-4.72103 23.7947 0
-13.8477 20.7927 0
-10.51 21.8263 0
5.68056 24.4376 0
6.42821 23.4124 0
0.181761 30.144 0
1.78814 38.7147 0
-8.05133 22.5663 0
-7.55502 23.5452 0
0.716009 39.1603 0
0.538905 41.1656 0
-8.38028 29.2127 0
-6.16613 30.5631 0
10.2023 21.4084 0
8.8923 22.3498 0
14.9499 24.7703 0
12.6867 25.0841 0
6.23668 22.8551 0
7.22664 21.8226 0
2.7061 20.9856 0
4.53494 21.7279 0
3.60448 24.7881 0
4.77819 28.5577 0
5.3072 20.3178 0
6.40733 19.3428 0
2.01456 23.016 0
2.25101 24.2304 0
13.4046 19.6784 0
10.2036 21.1308 0
-3.0653 34.7461 0
-2.35573 32.6552 0
-11.5004 30.9701 0
-13.2459 31.7859 0
0.151207 21.3693 0
0.62697 22.6536 0
-6.90983 23.5839 0
-6.48617 24.2228 0
-9.71962 21.2665 0
-7.38643 21.4702 0
8.78307 26.3236 0
10.0601 24.7797 0
-14.6292 27.4517 0
-12.5082 26.8976 0
-6.76658 25.0902 0
-6.42767 26.6542 0
2.94866 33.121 0
7.07572 32.1992 0
-9.95741 33.0477 0
-7.65439 30.3347 0
8.47618 26.819 0
5.56851 27.4534 0
2.50576 28.1285 0
1.7008 26.1469 0
-3.96298 26.2307 0
-3.82083 26.2891 0
5.96705 38.5625 0
6.85642 40.1428 0
0.314385 24.3789 0
1.56476 24.7892 0
-8.91863 24.7389 0
-8.94529 25.2817 0
3.05166 35.0279 0
1.79322 36.9064 0
-2.61154 25.8118 0
-1.82484 27.0227 0
12.6869 30.6498 0
11.0337 30.0141 0
-3.5532 38.7683 0
-3.75771 40.7133 0
-5.17555 37.4714 0
-3.65379 34.7633 0
10.3948 24.3701 0
10.1561 23.2355 0
-9.40287 27.649 0
-8.34365 25.6881 0
12.4041 27.6526 0
10.373 26.3984 0
-1.01986 35.1528 0
0.670568 32.2555 0
-9.6566 22.8059 0
-9.93783 23.9791 0
14.1421 32.7046 0
12.7223 31.9401 0
15.1217 26.0195 0
12.9051 26.4364 0
9.18818 35.8268 0
7.33467 34.0946 0
-0.588933 30.2582 0
-0.638665 28.13 0
-7.73287 35.5825 0
-9.45576 36.9497 0
3.6113 25.8055 0
2.35035 26.4897 0
6.48204 30.9306 0
6.88169 27.5496 0
6.12426 25.1064 0
4.96134 25.9598 0
-4.30552 29.6702 0
-3.23528 30.4799 0
8.37439 24.5724 0
8.08487 24.9942 0
5.02983 30.5548 0
4.79014 33.3768 0
-11.0894 31.2668 0
-9.16155 29.3186 0
8.94132 37.1584 0
9.86497 38.1933 0
-7.48957 28.1289 0
-4.36612 28.8792 0
-6.77843 36.0833 0
-5.76121 34.1252 0
2.31439 32.7053 0
1.60399 33.0186 0
-13.8199 30.3776 0
-11.754 29.533 0
-12.3454 33.4469 0
-11.1075 32.6292 0
-0.275904 36.1834 0
0.447518 36.1749 0
0.983066 28.4711 0
[...]
CELL_DATA 1002
SCALARS current_Length float
LOOKUP_TABLE default
0.879028
1.02687
1.48284
1.46755
1.65525
1.46738
0.527499
1.0281
1.78099
1.09387
1.03196
1.21815
1.75803
1.48634
0.486712
0.162034
1.74786
1.02344
0.0337567
0.594822
0.563545
0.832457
0.28148
0.706532
1.30026
1.07358
0.777303
1.05863
0.885259
2.02999
0.414906
0.55348
1.9015
0.500348
1.32541
1.15396
0.773157
0.827252
1.06895
0.950957
1.32554
0.86214
2.02493
0.00249755
1.28607
1.59634
1.47535
0.924316
0.762415
1.02167
0.731621
0.837033
1.1959
1.57603
1.84762
0.986163
0.967601
1.58392
1.19868
1.44535
1.10503
0.634567
0.704945
0.513521
1.09839
0.861948
1.12909
2.17798
1.72709
1.47455
0.839646
1.10444
1.44695
0.888708
1.06687
0.839224
1.04541
1.77692
1.05489
1.13817
0.859671
1.89571
0.34035
0.64406
0.550963
0.569206
1.0092
0.00249977
1.41418
0.0024887
1.27557
1.77789
0.743141
0.707259
1.24236
1.63754
0.00251688
1.64871
0.347871
0.635246
1.28665
1.0606
0.516015
1.51351
0.197638
0.593381
1.43104
0.381417
0.852788
1.56741
1.00333
1.18432
1.00562
1.2481
1.0278
1.64318
0.743503
0.935946
1.30233
0.490853
0.989268
0.0635057
1.23845
0.887698
0.608737
2.14433
0.711988
1.32902
2.31445
0.0380418
1.08022
1.0667
2.07444
1.32026
2.58005
0.92474
2.71054
1.10325
2.27316
2.28912
1.63975
3.14587
0.184738
3.25009
1.27542
2.11198
2.19852
0.807932
2.1921
2.061
2.32555
0.50965
2.5891
3.5097
1.08102
2.59386
1.28022
2.47048
1.16122
2.051
2.07241
1.39134
2.75893
0.935255
3.05134
0.700274
2.57972
2.65487
1.75346
2.8262
0.614245
2.76693
1.39262
2.06444
1.5517
1.93011
2.08138
0.94051
2.12516
1.01967
0.0100734
0.546603
4.0005
0.815956
1.0458
2.95237
1.50931
1.68146
1.31029
0.285629
1.11052
1.87651
1.87963
1.04059
1.00634
1.27841
1.17979
1.06667
1.647
1.3416
1.24613
0.926905
1.06435
2.12152
1.10149
1.45099
1.30514
0.522942
1.83758
0.00250181
1.77806
1.4652
1.36529
0.837129
1.59474
1.54801
0.65223
1.42425
1.75865
1.67555
1.65384
1.88649
0.745217
1.12604
2.18108
0.486806
0.692707
2.48489
0.00249838
1.37282
1.59284
1.43751
1.80983
1.54233
0.66896
1.72403
2.72251
0.911215
1.8172
1.84958
0.695103
1.00063
1.46135
1.26914
1.06854
1.56986
0.521401
0.490419
2.94745
0.604779
0.787544
2.03197
0.610508
1.70211
2.85372
1.08188
0.957658
1.48357
0.742592
0.97025
2.68271
1.65812
0.792712
1.03365
0.145127
1.1747
1.78367
0.718337
1.73851
2.63929
2.08661
1.12485
2.03042
0.75236
1.85824
2.47423
1.16523
0.921955
1.81172
0.294864
1.04835
2.98758
1.40457
0.0273781
3.0654
1.48249
0.712667
2.106
1.02756
0.650594
1.63156
0.890994
0.445403
3.22774
0.969455
1.04406
2.10244
1.18449
2.03094
0.907309
1.61531
1.80209
0.538046
1.88993
1.50948
0.998616
1.7425
0.601856
2.90392
0.953465
2.18368
1.95905
1.37151
1.65065
1.45909
1.1644
1.27014
0.837582
1.42803
1.44102
0.267735
0.519464
1.54639
0.696314
0.00251397
1.06027
3.5174
1.40078
1.01342
2.53589
0.993789
0.00252182
3.51676
0.332681
1.73186
3.04508
0.593419
1.08644
2.12983
1.46683
0.998865
2.03075
0.898166
1.73208
1.69048
1.54283
1.09398
1.06972
0.799281
1.7831
1.76745
0.871925
0.98909
2.74628
0.743451
1.5585
1.18734
0.636062
1.65615
1.29029
0.849723
0.468152
0.68843
0.721332
0.790512
3.41164
2.24165
2.17412
0.649632
1.3637
0.284027
1.54048
0.411967
1.03964
3.01103
1.16964
1.00943
1.62304
0.483992
1.00613
1.48127
0.717218
1.90341
2.51841
1.89145
1.51394
1.27091
2.14047
1.47055
0.358274
1.83602
0.681303
2.64357
0.848471
1.52073
2.72222
1.68338
0.00250993
1.22364
0.44929
0.726321
1.98677
1.06883
0.936154
1.38441
1.28583
1.07588
1.67451
1.41061
0.102676
2.58438
1.55082
1.21903
1.26555
0.723284
0.069393
1.87822
0.897772
0.556333
3.08174
1.36975
1.63702
0.871296
0.330407
1.07117
2.21506
0.664425
0.731507
2.5487
1.3309
2.23763
1.93232
0.94147
0.966971
1.68446
0.921401
0.215467
1.0278
0.890868
1.21272
3.00803
1.27952
1.31768
0.230161
2.1118
1.20225
0.956394
1.48985
0.346696
1.71579
0.692748
1.82199
2.56612
0.952031
1.51926
1.64179
1.05047
1.27111
1.84055
1.04066
1.48921
0.547086
0.770485
1.55576
0.393608
0.815888
0.410188
2.74031
1.79906
1.17588
1.35684
0.316063
1.53407
0.865977
1.3962
0.850242
2.10282
1.55756
1.21719
1.99959
0.287964
1.0094
1.51148
0.589485
0.830801
3.38769
0.381569
1.21397
2.05493
1.26697
0.779641
1.26004
1.90968
0.979791
1.56985
1.71354
1.08178
1.1473
0.705464
1.40138
2.33145
1.48836
2.20786
1.91326
1.63154
1.08814
1.74712
0.444232
0.713491
3.62466
0.0474993
1.29588
2.39336
0.982128
1.66684
0.358094
0.938198
1.16886
1.56067
1.87937
0.542091
1.80199
1.87739
0.745454
2.50069
1.78672
1.41622
1.05822
1.18501
1.53397
1.22379
0.25861
1.65118
1.21308
0.583248
0.996032
2.83237
0.0101326
0.588733
4.33261
1.00088
0.168007
1.43072
0.662769
1.435
1.49409
1.62092
0.74129
0.923795
0.928405
1.27846
0.986486
1.21837
0.490515
2.18352
1.38664
0.935234
1.05956
0.779111
0.58273
0.372221
0.647624
2.14548
2.05326
1.30599
0.423928
1.12447
0.799654
1.35874
2.56771
1.68495
0.77642
0.77877
0.00251064
1.89008
1.57868
0.918061
1.65931
1.68308
0.635197
0.825334
1.76892
1.39482
1.32135
1.75604
1.81991
0.709393
2.6678
0.348328
1.1506
1.38627
2.22146
1.33397
1.95594
1.58458
1.05497
1.45683
1.11923
1.26319
2.19618
1.42178
1.15896
1.36451
1.327
0.593795
1.74967
0.0672279
1.527
1.53988
1.32888
1.16741
1.75441
0.89184
1.539
1.23412
0.593213
0.0584196
4.07634
1.04286
1.23767
1.72576
0.494139
1.17834
1.15788
0.788426
0.834116
0.928933
0.0100532
0.968494
3.49408
1.40596
0.589239
1.2689
0.983492
1.61737
1.20562
1.27986
0.64634
1.09748
1.16107
1.49159
2.01304
1.40282
0.806826
1.23497
1.40884
0.426344
1.61324
1.26099
0.856759
2.28487
1.59675
0.390435
1.43047
0.441035
1.1915
1.97372
0.898492
0.761413
1.01742
1.49057
0.308634
1.46995
0.617866
1.46387
1.23719
0.720103
0.277551
3.51514
0.588748
1.41157
1.75824
0.895616
1.24616
1.92666
0.625242
1.43413
1.36965
2.03384
1.8163
0.766595
0.419053
1.17234
2.34206
0.802591
0.934008
1.34429
2.00377
1.01559
2.19215
0.911608
1.76319
0.687016
0.472044
1.40069
0.735298
1.2239
1.33634
1.68361
0.43606
1.35795
1.16318
0.733827
1.50213
0.734468
0.868726
1.30007
0.153662
0.727513
1.65445
1.81338
1.07168
0.884949
1.31596
1.81231
1.68663
0.543429
1.1641
1.80825
0.650448
1.08239
0.598211
1.44401
1.29078
1.05201
1.77116
1.05576
1.38832
1.95578
0.809898
1.23236
1.19644
0.528923
1.2755
1.15948
0.525458
0.726046
1.24515
0.854014
1.59172
1.72601
1.48292
1.33925
1.35852
1.62305
1.27128
1.2064
1.82982
0.93069
1.61249
1.92435
0.943381
2.25542
1.53438
1.33496
1.39924
1.16804
1.2255
1.14526
1.14943
1.99132
2.19946
0.408332
1.64616
1.43461
1.40802
1.3167
0.992856
1.96382
1.61226
0.168282
0.79326
0.528747
1.34206
1.69837
1.50164
0.511575
1.50005
1.59774
0.324051
0.506888
0.400708
1.53158
1.35427
1.88922
1.38712
1.33792
1.0868
1.52612
1.07782
0.64625
1.13436
0.75835
0.548514
0.77642
1.48153
0.739746
2.23185
1.88943
1.36258
1.48358
1.27108
1.49716
0.723472
1.85489
1.33774
0.53047
1.29801
1.02633
1.36434
0.603068
0.974519
1.42752
0.802006
1.25936
0.881253
0.959619
1.86518
1.73523
0.789819
0.80153
1.44283
1.55707
1.09898
1.99223
1.79578
0.865766
1.43488
0.772231
0.477639
1.7423
0.365497
1.28206
1.62511
0.461642
1.60221
1.37851
2.23123
1.96832
0.964009
0.690214
0.449453
1.39784
1.1344
1.3459
0.984295
0.941601
0.598689
2.89034
1.25889
1.24051
0.808567
0.988976
1.98302
2.18632
0.813437
0.508677
2.39813
1.18597
2.08702
1.66819
2.02225
1.97074
0.828326
1.92336
1.62587
0.792195
1.32706
0.997959
1.19097
0.466034
1.39273
2.07333
1.10257
1.86305
1.26714
1.86653
0.645801
1.91982
1.10924
0.451705
1.41556
0.877869
1.20767
1.11503
0.588971
0.943789
1.09594
1.47774
0.494996
1.26017
1.68407
0.859881
1.79362
1.39095
0.896591
1.34976
1.06269
1.1016
1.95017
1.12243
0.689085
1.55486
1.34016
0.579612
2.17112
1.03515
0.937192
2.2813
0.691871
1.09538
1.83368
0.850899
1.30794
1.98733
0.790279
1.58971
1.9504
1.09098
1.15603
1.76811
1.1136
1.62851
1.76672
0.919804
0.169009
2.04743
0.832281
0.426362
1.37178
0.663864
0.695635
1.67003
1.34642
1.3865
1.50611
1.47515
0.732101
1.11678
0.740801
0.670333
1.99368
1.37201
1.51115
1.32618
0.702926
0.704875
1.31092
0.745304
0.636989
1.79533
1.55037
0.656828
1.11824
1.37657
0.675209
1.6996
1.1092
0.998735
2.01775
1.47051
0.977445
1.88774
1.43215
0.485203
2.3734
1.20332
1.29316
1.44582
0.610718
0.642044
1.33068
1.40899
0.849392
1.56578
1.07916
0.0310517
1.58816
1.16456
1.4917
1.50801
1.53367
0.149014
1.3767
0.0894994
1.02764
2.02617
1.32399
0.730741
2.30848
0.422639
1.93822
1.92833
1.3777
0.617626
2.31514
3.29247
3.27696
3.26965
166
232
3.25239

SCALARS edge_force float
LOOKUP_TABLE default
0.5
0.5
0.5
0.5
0.5
0.5
0.5
0.5
0.5
0.5
0.5
0.5
0.5
0.5
0.5
0.5
0.5
0.5
0.5
0.5
0.5
0.5
0.5
0.5
0.5
0.5
0.5
0.5
0.5
0.5
0.5
0.5
0.5
0.5
0.5
0.5
0.5
0.5
0.5
0.5
0.5
0.5
0.5
0.5
0.5
0.5
0.5
0.5
0.5
0.5
0.5
0.5
0.5
0.5
0.5
0.5
0.5
0.5
0.5
0.5
0.5
0.5
0.5
0.5
0.5
0.5
0.5
0.5
0.5
0.5
0.5
0.5
0.5
0.5
0.5
0.5
0.5
0.5
0.5
0.5
0.5
0.5
0.5
0.5
0.5
0.5
0.5
0.5
0.5
0.5
0.5
0.5
0.5
0.5
0.5
0.5
0.5
0.5
0.5
0.5
0.5
0.5
0.5
0.5
0.5
0.5
0.5
0.5
0.5
0.5
0.5
0.5
0.5
0.5
0.5
0.5
0.5
0.5
0.5
0.5
0.5
0.5
0.5
0.5
0.5
0.5
0.5
0.5
0.5
0.5
0.5
0.5
0.5
2
0.5
2
0.5
2
0.5
0.5
2
0.5
2
0.5
2
0.5
0.5
2
0.5
2
0.5
2
0.5
0.5
2
0.5
2
0.5
2
0.5
0.5
2
0.5
2
0.5
2
0.5
0.5
2
0.5
2
0.5
2
0.5
2
2
2
2
2
2
2
0.5
0.5
2
0.5
0.5
0.5
0.5
0.5
0.5
0.5
0.5
0.5
0.5
0.5
0.5
0.5
0.5
0.5
0.5
0.5
0.5
0.5
0.5
0.5
0.5
0.5
0.5
0.5
0.5
0.5
0.5
0.5
0.5
0.5
0.5
0.5
0.5
0.5
0.5
0.5
0.5
0.5
0.5
0.5
0.5
0.5
0.5
0.5
0.5
0.5
0.5
0.5
0.5
0.5
2
0.5
0.5
2
0.5
0.5
0.5
0.5
0.5
0.5
0.5
0.5
0.5
0.5
0.5
0.5
0.5
0.5
2
0.5
0.5
0.5
0.5
2
0.5
0.5
0.5
0.5
0.5
0.5
0.5
0.5
0.5
2
0.5
2
0.5
0.5
0.5
2
0.5
0.5
0.5
0.5
0.5
2
0.5
2
0.5
0.5
2
0.5
0.5
0.5
0.5
0.5
2
0.5
0.5
0.5
0.5
0.5
0.5
0.5
0.5
0.5
0.5
0.5
0.5
0.5
0.5
2
0.5
0.5
0.5
0.5
0.5
0.5
0.5
0.5
0.5
0.5
0.5
0.5
0.5
0.5
0.5
0.5
0.5
0.5
2
0.5
0.5
2
0.5
2
0.5
0.5
2
0.5
0.5
0.5
0.5
0.5
0.5
0.5
0.5
0.5
0.5
0.5
0.5
0.5
0.5
0.5
0.5
0.5
2
0.5
0.5
0.5
0.5
0.5
0.5
0.5
0.5
0.5
0.5
0.5
2
0.5
0.5
0.5
0.5
0.5
0.5
0.5
0.5
0.5
2
0.5
0.5
0.5
0.5
0.5
0.5
0.5
0.5
2
0.5
0.5
0.5
0.5
0.5
0.5
0.5
2
0.5
0.5
0.5
2
0.5
0.5
0.5
0.5
0.5
0.5
0.5
0.5
0.5
0.5
0.5
0.5
0.5
2
0.5
0.5
0.5
0.5
0.5
0.5
0.5
0.5
2
0.5
0.5
0.5
0.5
0.5
0.5
0.5
0.5
0.5
0.5
0.5
0.5
2
0.5
0.5
0.5
0.5
0.5
0.5
0.5
2
0.5
0.5
0.5
0.5
0.5
0.5
0.5
0.5
0.5
0.5
0.5
0.5
2
0.5
0.5
0.5
0.5
0.5
0.5
0.5
0.5
0.5
0.5
0.5
0.5
0.5
0.5
0.5
0.5
0.5
0.5
0.5
0.5
0.5
0.5
2
0.5
0.5
2
0.5
0.5
0.5
0.5
0.5
2
0.5
0.5
0.5
0.5
0.5
0.5
0.5
0.5
0.5
0.5
0.5
0.5
0.5
0.5
0.5
0.5
0.5
0.5
0.5
0.5
0.5
0.5
0.5
2
0.5
0.5
0.5
0.5
0.5
0.5
0.5
0.5
0.5
0.5
0.5
2
0.5
0.5
2
0.5
0.5
0.5
0.5
0.5
0.5
0.5
0.5
0.5
0.5
0.5
0.5
2
0.5
2
0.5
0.5
0.5
0.5
0.5
0.5
0.5
0.5
0.5
0.5
0.5
0.5
0.5
0.5
0.5
0.5
0.5
0.5
0.5
0.5
0.5
0.5
0.5
0.5
2
0.5
0.5
0.5
0.5
2
0.5
0.5
0.5
0.5
0.5
0.5
0.5
0.5
0.5
0.5
0.5
0.5
0.5
0.5
0.5
0.5
0.5
2
0.5
0.5
0.5
0.5
0.5
2
0.5
0.5
0.5
0.5
0.5
2
0.5
0.5
0.5
0.5
0.5
0.5
0.5
0.5
0.5
0.5
0.5
0.5
0.5
0.5
0.5
0.5
0.5
2
0.5
0.5
0.5
0.5
0.5
0.5
0.5
0.5
0.5
0.5
0.5
2
0.5
0.5
0.5
0.5
0.5
0.5
0.5
0.5
0.5
0.5
0.5
0.5
2
0.5
0.5
0.5
0.5
0.5
0.5
0.5
2
0.5
0.5
0.5
0.5
0.5
0.5
0.5
0.5
0.5
0.5
0.5
0.5
0.5
0.5
0.5
0.5
0.5
2
0.5
0.5
0.5
0.5
0.5
0.5
2
0.5
0.5
0.5
0.5
0.5
0.5
0.5
0.5
0.5
0.5
0.5
0.5
0.5
2
0.5
0.5
0.5
0.5
0.5
0.5
0.5
0.5
0.5
0.5
0.5
0.5
0.5
0.5
0.5
0.5
0.5
0.5
0.5
0.5
0.5
2
0.5
0.5
0.5
0.5
0.5
0.5
0.5
0.5
0.5
0.5
0.5
0.5
0.5
0.5
0.5
0.5
0.5
2
0.5
0.5
0.5
0.5
0.5
0.5
0.5
0.5
0.5
0.5
0.5
0.5
0.5
0.5
0.5
0.5
0.5
0.5
0.5
2
0.5
0.5
2
0.5
0.5
0.5
0.5
0.5
0.5
0.5
0.5
0.5
2
0.5
0.5
0.5
0.5
0.5
0.5
0.5
0.5
0.5
0.5
0.5
0.5
0.5
0.5
0.5
0.5
0.5
0.5
0.5
0.5
0.5
0.5
0.5
2
0.5
0.5
0.5
0.5
0.5
0.5
0.5
0.5
0.5
0.5
2
0.5
0.5
2
0.5
0.5
0.5
0.5
0.5
0.5
0.5
0.5
0.5
0.5
0.5
0.5
0.5
0.5
0.5
0.5
0.5
0.5
0.5
0.5
0.5
0.5
0.5
2
0.5
0.5
0.5
0.5
0.5
0.5
0.5
0.5
0.5
0.5
0.5
0.5
0.5
0.5
0.5
0.5
0.5
0.5
0.5
0.5
0.5
0.5
0.5
2
0.5
0.5
0.5
0.5
0.5
0.5
2
0.5
2
0.5
0.5
0.5
0.5
0.5
0.5
0.5
0.5
0.5
0.5
0.5
0.5
0.5
0.5
0.5
0.5
0.5
0.5
0.5
0.5
2
0.5
0.5
0.5
0.5
0.5
0.5
0.5
0.5
0.5
0.5
0.5
0.5
0.5
0.5
2
0.5
0.5
0.5
0.5
0.5
0.5
0.5
0.5
0.5
0.5
0.5
2
0.5
0.5
0.5
0.5
0.5
0.5
0.5
0.5
0.5
0.5
0.5
0.5
2
0.5
0.5
0.5
0.5
0.5
0.5
0.5
0.5
0.5
0.5
0.5
0.5
0.5
0.5
0.5
0.5
0.5
0.5
0.5
0.5
0.5
0.5
0.5
0.5
0.5
0.5
0.5
0.5
0.5
0.5
0.5
0.5
0.5
0.5
0.5
0.5
0.5
0.5
0.5
0.5
0.5
0.5
0.5
2
0.5
0.5
2
0.5
0.5
0.5
0.5
0.5
0.5
0.5
0.5
0.5
0.5
0.5
0.5
0.5
0.5
0.5
0.5
0.5
0.5
0.5
0.5
0.5
0.5
0.5
0.5
2
0.5
0.5
2
0.5
2
0.5
0.5
0
0
0
0
0
0
