# vtk DataFile Version 2.0
2D-vertex
ASCII
DATASET UNSTRUCTURED_GRID
POINTS 1396 float
0.657748 -5.24881 0
3.10859 -4.99946 0
3.48095 -4.0458 0
2.43846 -2.99602 0
0.165426 -2.8866 0
-0.529749 -4.3843 0
4.0115 -4.00256 0
4.57021 -3.13778 0
3.61298 -1.64203 0
2.5699 -1.9747 0
1.37492 -0.736978 0
-0.32188 -0.286964 0
-1.0663 -1.57304 0
-1.22345 -1.61438 0
-1.71524 -3.287 0
-1.19292 -4.16223 0
5.14398 -3.28409 0
5.94267 -2.38671 0
4.08102 -0.888317 0
3.81066 -0.960374 0
2.91816 -0.0182132 0
1.85255 -0.123681 0
1.13893 3.49276 0
0.289274 3.45417 0
-0.503163 1.56164 0
-1.69874 0.630728 0
-1.58693 -1.27 0
-2.87593 -1.58013 0
-3.37215 -2.61692 0
-3.06032 -3.32237 0
7.01105 -2.35389 0
7.62076 -1.61354 0
7.41562 -0.306241 0
5.1796 0.815396 0
5.63726 1.40488 0
3.26608 2.69262 0
2.47661 3.96814 0
1.5923 4.10931 0
0.624839 7.30001 0
-0.952865 7.31685 0
-0.595269 4.24961 0
-2.07882 3.28402 0
-3.1094 1.72009 0
-4.06777 1.7409 0
-4.7855 0.323282 0
-6.19179 -0.00339093 0
-6.46302 -1.06773 0
-4.92564 -2.40373 0
7.82793 0.335813 0
7.46405 1.36326 0
6.70487 1.76478 0
5.91886 3.81192 0
3.54775 4.95443 0
3.45816 5.83341 0
1.98416 7.43956 0
2.50682 8.15356 0
-1.92719 8.69377 0
-1.81402 7.75609 0
-3.04596 6.38865 0
-2.69035 4.23597 0
-4.32312 4.52047 0
-5.69233 3.18591 0
-7.59253 1.67423 0
-7.44296 1.13933 0
8.37021 1.7978 0
8.37014 1.8003 0
6.83195 3.81393 0
7.2338 5.03088 0
5.92664 6.27111 0
6.11775 6.96432 0
5.28322 7.96913 0
4.98306 8.49762 0
-2.64127 11.0049 0
-2.91374 10.6311 0
-6.05244 7.64424 0
-5.37952 6.87015 0
-6.09315 5.4811 0
-6.009 5.31868 0
-8.58173 2.17675 0
-8.4259 1.82047 0
9.88955 2.15222 0
10.179 3.12169 0
9.35109 4.08206 0
10.4984 4.5417 0
10.143 6.0616 0
10.3075 6.78108 0
9.31966 11.3902 0
10.2339 13.4964 0
-9.56461 12.6463 0
-9.56447 12.6438 0
-10.021 6.76778 0
-9.72392 6.24736 0
-10.0628 5.60917 0
-9.31102 4.51925 0
-10.1098 3.25369 0
-9.63707 2.27235 0
4.07115 -6.82926 0
5.26282 -6.24586 0
6.09104 -5.81376 0
8.39673 -4.14346 0
9.64318 -2.66373 0
10.8971 -0.279959 0
10.988 -0.0994385 0
11.652 1.00508 0
12.3624 2.96601 0
12.5416 3.76722 0
12.5669 7.30291 0
12.8018 14.0438 0
-13.1577 13.1086 0
-12.6044 6.7149 0
-12.5128 5.42889 0
-12.1153 2.87819 0
-11.2174 0.94572 0
-10.3388 -0.144987 0
-9.71736 -0.862496 0
-8.77609 -2.17922 0
-6.79258 -4.27461 0
-4.67823 -5.62512 0
-2.54659 -6.56412 0
0.480855 -7.29619 0
12.3608 8.78791 0
8.26674 8.82179 0
-12.8787 9.20074 0
-9.97695 10.028 0
-0.244086 1.22879 0
1.04823 1.35885 0
-1.82737 3.25805 0
-1.03525 1.54165 0
4.51707 2.9276 0
4.89373 3.86039 0
0.295355 8.9176 0
0.0934135 7.78019 0
-1.12775 5.59545 0
-2.30271 5.27771 0
5.91782 3.81419 0
5.02027 5.76923 0
4.0303 6.24292 0
4.00285 7.62238 0
1.94663 9.19445 0
1.94471 9.19283 0
-2.3886 8.89394 0
-3.9504 7.07156 0
-3.50008 6.39487 0
-4.45642 5.10547 0
1.51042 -1.37465 0
0.0867963 -2.40991 0
6.58639 -0.0876037 0
5.54025 -1.66197 0
5.17754 0.816808 0
3.13451 1.56966 0
-8.88844 8.41883 0
-5.87198 8.34624 0
3.13202 1.56966 0
1.68487 2.20774 0
-9.32135 4.45468 0
-7.90547 3.86096 0
-0.561531 -4.40155 0
-0.903375 -7.09296 0
14.7449 28.8291 0
17.7386 27.8897 0
1.46188 -4.88255 0
1.53095 -3.42785 0
2.45397 6.18738 0
1.30623 5.13819 0
8.10886 8.34863 0
5.28331 7.97164 0
8.08969 19.1904 0
-0.235943 10.8982 0
-2.49262 -3.56663 0
-3.12945 -6.33623 0
-4.19646 -0.586414 0
-5.06229 -1.78408 0
-5.3377 -5.25896 0
-4.3251 -2.78742 0
0.37707 5.58505 0
-0.521806 5.13492 0
9.32496 3.93426 0
7.76457 3.08927 0
5.77315 -2.92457 0
7.54974 -4.86354 0
2.0394 -7.32234 0
2.0174 -5.29872 0
-6.01431 -1.68318 0
-7.56605 -3.59448 0
-5.27432 2.09382 0
-6.5786 0.827075 0
7.67796 -0.165069 0
10.1888 -1.75919 0
-12.3781 4.26815 0
-9.33481 4.47922 0
12.7421 5.82345 0
10.662 5.56296 0
-2.66524 0.791387 0
-3.54635 -0.583693 0
-9.28063 -1.43071 0
-6.55579 0.259907 0
-3.51466 4.028 0
-4.23786 2.03108 0
-6.7477 4.06062 0
-6.31516 3.26617 0
8.19133 5.23043 0
8.38101 5.72166 0
-0.999068 10.7238 0
-0.735593 9.56188 0
12.365 8.79709 0
9.65797 9.9923 0
9.44698 12.2689 0
1.6047 9.79258 0
7.72611 6.97684 0
8.90737 7.72193 0
-7.23629 5.56815 0
-7.58309 6.31794 0
-2.43379 13.0547 0
0.484466 12.2383 0
-9.91067 10.5252 0
-4.11015 10.4496 0
8.90594 7.724 0
12.3979 8.33102 0
-10.6856 11.6772 0
-13.225 12.1324 0
-12.6581 7.70355 0
-9.15526 7.97079 0
12.1238 16.7689 0
9.58477 14.956 0
7.92025 9.26291 0
5.78744 9.38732 0
-9.15532 7.96827 0
-7.27611 7.29161 0
1.88321 12.7898 0
3.65409 11.1529 0
-4.39067 8.83505 0
-3.63073 8.20307 0
4.3505 10.9177 0
3.49633 9.33039 0
12.647 10.4939 0
9.84513 10.5358 0
-3.04797 12.6133 0
-4.53315 11.4143 0
-13.5753 24.5319 0
-0.2322 13.8911 0
-6.45774 8.8821 0
-4.39718 10.6431 0
-12.736 8.42691 0
-9.33778 9.00712 0
5.26592 15.0562 0
7.5426 13.0559 0
-1.39828 12.6434 0
-0.835854 10.9273 0
-10.1689 15.9182 0
-13.4416 14.8839 0
18.2756 33.3776 0
1.77772 13.926 0
-3.06373 15.3822 0
-10.1113 16.3316 0
-10.6475 11.0046 0
-13.1015 10.2404 0
-6.51184 12.6859 0
-5.9515 11.6053 0
-6.33209 9.64933 0
-7.11774 10.5698 0
12.818 12.2117 0
10.2081 12.8529 0
-11.0037 17.3763 0
-14.0466 17.2346 0
5.54731 10.4996 0
4.36714 10.8589 0
9.55607 14.1499 0
7.57853 13.6186 0
3.44753 12.3395 0
5.97477 14.3732 0
-2.25917 14.6147 0
-0.832015 14.929 0
13.426 18.7383 0
10.6044 19.9943 0
-0.155561 13.8761 0
0.731179 14.5752 0
11.3629 21.7085 0
3.3253 14.5016 0
12.7157 11.3354 0
9.59525 11.7606 0
-8.35933 12.1621 0
-8.38257 11.2865 0
-9.23169 9.35556 0
-7.12113 10.1851 0
-9.77551 15.5599 0
-6.07815 14.5529 0
20.3006 37.4418 0
22.4045 37.5862 0
1.3035 12.1509 0
2.1472 10.6074 0
-3.9917 14.2844 0
-3.85503 12.9952 0
-13.271 14.155 0
-9.97632 14.8612 0
-0.641235 16.5563 0
-0.661553 16.5413 0
7.16573 11.4061 0
6.71114 12.3232 0
8.14202 9.77128 0
7.04624 11.1428 0
-10.938 16.8348 0
-13.6725 15.6421 0
-2.8412 15.3855 0
-1.85791 16.8903 0
1.02385 15.7705 0
2.52937 15.7783 0
5.68648 12.4725 0
5.36734 13.1392 0
-7.29461 15.85 0
-7.04641 16.3704 0
-8.97395 13.4302 0
-6.29402 13.6574 0
3.30759 14.4547 0
4.13554 13.1938 0
-10.3531 19.3792 0
-3.93373 16.6075 0
13.9269 19.6473 0
11.4642 20.8554 0
-16.6313 23.4245 0
-14.0718 23.6784 0
7.61446 15.4037 0
6.83435 14.4686 0
12.1111 16.8616 0
8.19799 18.2598 0
3.22205 17.1329 0
4.93689 17.745 0
0.588569 18.6016 0
2.61705 17.5879 0
-1.1222 24.8511 0
-3.73864 23.3146 0
-3.23913 21.636 0
-4.45652 18.5648 0
-6.11975 13.4191 0
-4.05256 12.874 0
-9.55896 18.3163 0
-8.04427 17.2785 0
6.86739 22.5099 0
6.22147 19.5627 0
-13.1656 13.4592 0
-9.29388 13.9044 0
-9.23562 14.054 0
-7.03558 15.0735 0
-0.634596 18.8692 0
-0.38419 18.5394 0
14.2927 28.2016 0
1.7361 22.2298 0
16.6651 24.6037 0
14.4732 25.2505 0
-15.0305 19.0338 0
-12.2084 19.898 0
-5.29248 14.9288 0
-5.1365 16.276 0
7.02743 16.2979 0
5.91458 16.2929 0
0.739316 16.2297 0
1.34355 17.3195 0
9.76356 14.6126 0
12.647 15.0276 0
12.1078 16.8277 0
7.60677 15.7455 0
-11.8717 20.9108 0
-4.44143 19.0233 0
-2.40619 17.9511 0
-3.55414 17.8008 0
3.07906 22.5219 0
3.6741 21.8132 0
-5.68269 16.7363 0
-5.58096 17.9657 0
3.23811 16.5126 0
5.27347 15.6387 0
-2.08632 21.5503 0
-0.55915 23.0146 0
1.96709 28.0113 0
11.9816 28.6487 0
-19.0867 39.3644 0
-20.6655 38.8246 0
-17.1774 51.1846 0
-2.71502 24.3471 0
-14.1641 17.4439 0
-11.9877 19.5527 0
-1.95325 18.7826 0
-3.50602 19.7231 0
-7.26335 19.4978 0
-5.80092 19.9053 0
12.4818 24.5786 0
11.3255 27.7592 0
4.15551 20.0488 0
5.68812 20.316 0
10.5658 20.1452 0
7.61947 21.257 0
12.3931 17.2785 0
10.3862 19.7412 0
-13.6239 22.908 0
-3.83426 20.9768 0
15.7243 22.8611 0
14.0001 24.5223 0
1.67938 19.6367 0
2.83309 18.8694 0
-15.7341 20.448 0
-13.6271 21.8356 0
-1.9731 26.4849 0
3.57794 23.8091 0
-0.0402325 20.3731 0
1.35149 20.7154 0
-8.0353 17.4415 0
-6.70612 18.4374 0
7.28948 17.4876 0
5.78488 18.3585 0
-1.60127 20.7622 0
-2.35155 19.5184 0
12.1039 16.8395 0
7.44617 17.0156 0
-2.79311 23.9214 0
-1.55233 22.7845 0
-5.74648 20.5844 0
-4.7868 21.2527 0
-4.6064 23.4722 0
-5.22031 22.5942 0
-14.0527 17.2426 0
-10.2573 18.9654 0
4.77197 23.8057 0
5.35778 22.5728 0
-0.30086 29.1319 0
14.4025 57.6338 0
-8.05444 20.3975 0
-7.79124 21.5435 0
5.1071 63.6098 0
4.98983 65.3449 0
-10.3063 26.4293 0
-8.35715 28.9373 0
8.71295 19.6014 0
7.47707 20.9284 0
14.4087 20.4987 0
11.7905 21.9921 0
5.02363 21.9678 0
5.87426 20.7413 0
1.74209 20.3783 0
3.36482 20.885 0
3.00435 24.4391 0
5.06037 28.0855 0
3.93498 19.2471 0
5.0522 18.1511 0
1.31945 22.6544 0
1.64982 24.0124 0
12.161 16.9673 0
8.68893 19.4854 0
-7.10889 34.5646 0
-4.85798 30.8478 0
-14.1465 25.9682 0
-16.9906 25.3822 0
-0.449135 20.8704 0
0.0702637 22.3481 0
-7.23146 21.7332 0
-6.93125 22.6061 0
-9.56979 18.68 0
-7.26355 19.4953 0
8.20859 24.7472 0
9.07499 22.8779 0
-16.3953 22.2171 0
-13.8784 22.5151 0
-7.37497 23.2923 0
-7.39506 24.8988 0
5.01036 32.2393 0
8.70575 30.5249 0
-14.6013 27.8032 0
-10.1084 27.4591 0
8.09769 25.3316 0
5.48293 26.9012 0
2.27542 27.7147 0
1.17604 25.8405 0
-4.8798 25.247 0
-4.726 25.3563 0
20.1377 36.3322 0
22.0537 35.5563 0
-0.28351 24.0943 0
1.03326 24.5459 0
-9.40123 22.2834 0
-9.55462 22.674 0
6.81761 36.8045 0
11.7619 45.7166 0
-3.37066 25.121 0
-2.8394 26.3256 0
14.2585 25.7841 0
11.9173 26.3673 0
-19.0035 43.6435 0
-21.0356 43.3382 0
-17.8108 41.4728 0
-8.6144 33.7818 0
9.32174 22.2488 0
8.84595 21.3823 0
-10.6101 24.5754 0
-9.02583 23.3796 0
12.2117 24.1705 0
9.80887 24.1857 0
-1.83485 36.2139 0
-0.522974 30.7413 0
-9.68266 20.2496 0
-10.2056 21.1792 0
17.1099 25.9112 0
14.7975 26.4525 0
14.8413 21.1923 0
12.5476 22.9604 0
17.0422 31.5827 0
13.3314 32.3752 0
-1.88877 29.1049 0
-1.56524 27.4908 0
-16.3161 32.6054 0
-18.3658 31.6195 0
3.146 25.5106 0
2.03648 26.2558 0
7.81657 29.6365 0
6.81731 26.5766 0
5.36659 24.389 0
4.48453 25.5677 0
-6.28411 28.2475 0
-5.72005 28.9583 0
7.37381 23.1903 0
7.18502 23.7788 0
6.00024 29.7836 0
6.64886 32.3206 0
-14.1103 26.0809 0
-10.973 26.1806 0
18.5653 32.7116 0
20.7784 32.0944 0
-8.90125 25.7292 0
-6.1157 27.6241 0
-14.7606 35.0924 0
-10.8844 32.2864 0
3.48207 31.6223 0
3.0672 31.912 0
-16.812 24.4808 0
-13.7772 24.8543 0
-17.2482 26.6218 0
-14.9358 27.0228 0
[...]
CELL_DATA 699
SCALARS cell_division_count float
LOOKUP_TABLE default
1
0
1
0
0
0
1
0
0
1
1
1
1
1
1
1
0
1
1
1
1
1
1
0
1
1
1
1
1
1
1
1
2
4
3
1
1
0
0
1
1
0
0
0
1
2
3
0
1
0
0
1
1
1
1
1
0
0
3
0
1
2
3
1
1
1
1
1
1
1
2
2
1
1
1
1
2
1
1
1
3
1
1
2
9
1
1
1
1
1
1
1
1
1
1
1
1
1
1
1
1
1
2
3
5
2
1
3
5
2
2
2
5
3
2
4
2
3
5
5
6
3
3
6
3
4
6
9
3
5
4
4
8
5
6
6
5
4
5
14
5
5
5
7
5
4
6
4
10
5
3
4
6
6
6
7
6
6
11
7
8
7
6
7
8
18
11
6
8
9
4
7
8
13
6
7
7
8
8
3
6
12
10
11
9
7
11
13
9
16
8
11
10
11
9
9
5
14
6
10
8
13
10
10
8
11
6
10
11
14
8
11
13
11
9
12
9
8
9
11
13
9
11
6
16
13
11
12
11
13
8
13
13
12
15
14
10
8
12
13
14
11
12
13
17
9
14
15
15
12
7
9
14
15
11
14
14
14
13
13
12
12
8
12
16
14
8
9
17
14
15
17
14
14
13
11
14
14
14
14
14
15
14
8
15
9
9
14
13
13
14
12
12
10
12
12
14
15
7
13
13
15
11
14
14
14
8
13
15
12
16
15
15
15
13
14
15
16
12
15
19
10
11
14
16
14
16
17
14
15
12
7
13
13
19
14
15
13
16
16
13
16
15
12
15
14
17
13
10
9
14
18
13
15
14
15
11
17
15
15
15
15
14
13
13
15
14
20
16
15
17
15
15
15
17
8
16
15
15
16
13
14
10
19
16
17
12
16
18
14
18
16
15
9
16
15
14
14
21
16
19
14
14
15
22
18
14
17
8
11
11
14
15
12
17
15
15
16
17
15
16
15
16
16
16
19
16
15
15
17
20
16
20
17
17
17
15
19
14
16
20
11
11
13
13
16
17
18
20
19
17
17
17
17
17
15
17
16
17
16
19
12
11
16
17
17
20
13
16
19
15
16
15
18
20
17
19
15
19
21
17
17
18
20
20
14
14
17
16
16
16
17
19
16
18
15
17
17
17
13
17
18
21
17
18
17
20
21
17
16
21
20
20
19
20
16
11
22
17
18
17
15
19
17
16
17
20
17
17
18
12
19
13
19
17
18
17
18
18
21
18
17
13
17
14
18
21
19
17
19
22
21
19
21
16
17
21
20
12
16
14
16
20
10
19
16
19
17
21
20
17
20
19
18
21
20
18
21
18
17
12
14
16
20
20
17
20
20
21
18
19
19
18
17
17
16
18
18
19
21
20
11
19
19
13
14
22
19
22
16
19
20
21
14
19
21
20
21
19
18
20
18
21
21
17
13
19
20
21
17
21
18
21
20
20
21
21
20
13
17
20
13
20
18
20
20
20
17
13
17
22
21
21
20
21
19
19
17
19
21
22
21
18
22
16
18
18
21
21
21
21
14
20
19
21
19
20
17
21
14
20
21
20
21
20
14
20
20
20
20
21
18
22
15
20
22
18
21
21
SCALARS cell_time float
LOOKUP_TABLE default
2751
2.22229e+13
2771
4.48239e+13
2.67348e+11
1.25633e+10
2781
2.68224e+09
9.19769e+11
2771
2771
2761
2731
2781
2701
2741
1.22876e+06
2781
2751
2781
2781
2681
2721
26563.4
2781
2781
2781
2781
2781
2671
2731
2671
2631
2371
2521
2621
2761
1.00108e+18
2.94533e+15
2731
2721
107863
4125.76
2837.34
2711
2611
2411
2828.01
2721
5479.01
3096.18
2701
2741
2751
2761
2731
1.12104e+13
23946.3
2201
4817.96
2731
2651
2471
2781
2781
2781
2781
2781
2781
2781
2661
2541
2781
2771
2771
2771
2601
2761
2761
2761
1901
2751
2751
2611
1531
2751
2741
2741
2731
2731
2731
2731
2731
2721
2721
2721
2711
2701
2701
2681
2671
2671
2661
2531
2351
2631
2621
2471
2251
2611
2611
2611
1901
2191
2601
2221
2541
2531
2261
2221
2111
2491
2471
2101
2471
2191
2201
1891
2411
2261
2391
2391
1171
2201
2091
2121
2321
2101
2291
1121
2261
2261
2251
1951
1381
2221
1991
1971
1621
2201
2191
2191
2191
2181
2121
1921
2111
2101
1461
1531
1451
1911
1501
1841
1911
441
1591
1991
1981
1531
1971
1951
1951
801
1311
1781
1921
1641
1911
1901
1631
1321
1771
1531
1851
1841
1471
1261
951
171
1591
1641
1761
1351
1531
1331
1731
1121
1711
1711
1111
1131
1681
1651
1641
1641
1631
1621
1601
1141
1591
1581
861
1571
791
1021
1531
1311
1531
1531
1251
1531
1521
1501
681
681
1471
1471
1461
1241
1451
1001
991
961
961
1161
1391
611
1371
1361
531
1361
981
91
201
1331
1121
971
441
1321
1011
1101
681
1001
521
1001
1001
1001
1071
1241
1061
1061
691
1021
641
741
1171
1171
461
1161
591
221
1141
941
1131
451
1131
1121
1121
471
1121
641
1121
1111
981
921
1101
981
981
1071
621
1061
1051
1041
1021
1021
641
871
1011
1011
1001
1001
611
1001
1001
1001
811
991
721
981
441
571
981
721
981
801
971
691
961
961
161
231
951
781
451
941
321
311
771
441
291
911
111
901
251
881
871
861
671
401
851
621
841
831
651
831
471
811
811
651
811
181
801
601
801
541
161
451
611
781
441
631
771
501
411
391
741
141
601
721
261
721
591
721
391
691
691
691
691
681
681
681
681
161
561
91
201
671
211
661
171
411
651
651
641
641
641
311
101
251
61
631
31
631
1
401
621
471
611
321
611
611
611
461
351
601
471
601
471
591
591
591
351
451
581
111
231
571
571
421
81
561
11
291
301
371
541
131
531
531
21
521
521
381
501
401
221
371
31
171
311
61
471
281
471
471
471
241
461
311
161
461
451
451
451
291
191
161
451
341
441
441
441
41
81
291
141
1
31
21
311
421
291
91
1
161
241
121
411
201
401
251
271
401
101
391
391
291
181
381
211
371
161
371
371
81
21
71
351
351
21
141
201
131
111
321
321
1
311
191
311
151
191
311
311
111
21
311
301
301
301
191
91
61
291
291
291
131
291
11
51
291
81
281
21
41
71
271
261
151
51
131
251
41
251
251
31
71
241
241
241
241
21
231
31
231
231
221
61
101
221
101
221
211
101
91
11
41
91
201
201
201
201
201
101
81
31
91
71
191
191
191
181
31
181
171
171
171
171
41
21
161
161
161
161
161
61
71
81
51
151
151
31
31
141
61
141
41
131
1
21
131
131
121
121
111
111
111
1
111
101
101
101
101
101
1
101
101
91
91
91
91
91
91
91
81
81
81
81
81
81
71
71
71
71
71
61
61
61
61
61
61
51
51
51
41
41
41
41
41
41
31
31
31
31
31
31
31
31
31
21
21
21
21
21
21
21
21
21
11
11
11
1
1
1
1
1
1
1
SCALARS cell_area float
LOOKUP_TABLE default
3.24158
3.29961
3.29286
3.3556
3.35087
3.34301
3.32587
3.37383
3.34818
3.28115
3.33596
3.28152
3.3855
3.31832
3.30523
3.32933
3.39787
3.28792
3.34537
3.39669
3.39106
3.33854
3.33849
3.37098
3.35718
3.3746
3.43868
3.40069
3.39015
3.32833
3.24623
3.29583
3.35026
3.33576
3.44296
3.24864
3.34414
3.25244
3.2609
3.24838
3.23648
3.27754
3.26122
3.27791
3.21922
3.28327
3.25418
3.26205
3.25826
3.24758
3.26732
3.27293
3.21622
3.25694
3.24459
3.242
3.20931
3.21642
3.26356
3.1954
3.24592
3.30501
3.26729
3.27964
3.33637
3.28404
3.39765
3.35045
3.27877
3.35531
3.45086
3.34988
3.35571
3.28618
3.24774
3.27391
3.34019
3.35039
3.23046
3.2219
3.21712
3.25825
3.33399
3.33018
3.36879
3.2224
3.29604
3.25203
3.36872
3.28653
3.2243
3.20354
3.2156
3.30304
3.2512
3.24389
3.25786
3.32332
3.2627
3.29926
3.2888
3.26245
3.40047
3.2306
3.2914
3.23916
3.32715
3.38273
3.28968
3.27802
3.25642
3.27077
3.27121
3.29186
3.24433
3.31481
3.35508
3.40435
3.25322
3.42261
3.30145
3.34724
3.2702
3.34688
3.40498
3.25739
3.4399
3.39552
3.21393
3.27835
3.33329
3.20469
3.27988
3.36958
3.31251
3.35309
3.3649
3.25817
3.36353
3.30653
3.24748
3.27909
3.314
3.27222
3.23617
3.34656
3.39977
3.26656
3.37971
3.31199
3.29868
3.22886
3.37176
3.36001
3.38227
3.38545
3.33691
3.30737
3.35396
3.26783
3.25396
3.40961
3.28252
3.31852
3.36798
3.36735
3.37006
3.32723
3.29905
3.36567
3.26867
3.32386
3.43137
3.29361
3.26989
3.22627
3.36002
3.3663
3.39204
3.23699
3.29598
3.30888
3.43708
3.39099
3.38945
3.31625
3.38768
3.40611
3.30316
3.32018
3.27153
3.41173
3.40366
3.28394
3.35544
3.26943
3.23099
3.28802
3.23488
3.34255
3.25503
3.3451
3.4213
3.35248
3.30008
3.3926
3.28667
3.35086
3.38612
3.36903
3.30597
3.3939
3.4024
3.35795
3.26054
3.3197
3.34184
3.27052
3.37361
3.3718
3.44969
3.35163
3.40331
3.27427
3.38713
3.28765
3.39972
3.33149
3.30657
3.37232
3.21491
3.36135
3.43788
3.26247
3.3508
3.41733
3.4314
3.27796
3.39322
3.38712
3.29274
3.37494
3.26632
3.33865
3.34123
3.33867
3.38334
3.296
3.31996
3.31733
3.28716
3.24361
3.33286
3.38081
3.30845
3.39496
3.32125
3.35377
3.40879
3.3411
3.34886
3.30576
3.23259
3.36816
3.38223
3.41196
3.27025
3.27948
3.39436
3.37541
3.38209
3.32815
3.37983
3.39132
3.38379
3.31601
3.34481
3.33704
3.35482
3.29429
3.26189
3.35402
3.37029
3.25881
3.38111
3.24696
3.29305
3.29091
3.35402
3.3495
3.36567
3.30769
3.37064
3.28334
3.39015
3.35624
3.37483
3.39854
3.3043
3.39663
3.33586
3.38415
3.33968
3.34939
3.35044
3.32982
3.25407
3.40205
3.3865
3.30971
3.4018
3.3301
3.31835
3.33642
3.39867
3.31485
3.40113
3.37687
3.35591
3.35179
3.31331
3.32513
3.28891
3.34474
3.37611
3.35462
3.32092
3.29049
3.37574
3.32056
3.30638
3.27614
3.30731
3.33744
3.34368
3.37838
3.35281
3.29844
3.38027
3.37292
3.34575
3.31379
3.2797
3.29607
3.32285
3.35432
3.33511
3.34441
3.24768
3.34009
3.42551
3.35735
3.33476
3.34927
3.31673
3.35873
3.2844
3.36224
3.35279
3.35295
3.30518
3.31699
3.35902
3.30869
3.30635
3.28908
3.34261
3.30618
3.3865
3.34482
3.37093
3.32025
3.40422
3.35533
3.33513
3.27055
3.3693
3.30642
3.37901
3.36648
3.3036
3.30376
3.31993
3.35671
3.34343
3.31399
3.31177
3.36666
3.38127
3.30641
3.37143
3.32207
3.32987
3.30887
3.28926
3.37026
3.31063
3.30593
3.36541
3.31404
3.33443
3.31173
3.33409
3.37891
3.37724
3.33062
3.3418
3.30017
3.28548
3.30065
3.30373
3.36073
3.36691
3.30166
3.35377
3.31399
3.32505
3.34989
3.34749
3.35795
3.31058
3.36822
3.3544
3.42829
3.37331
3.35499
3.37199
3.35511
3.38493
3.37128
3.32581
3.36334
3.33152
3.32904
3.3313
3.34865
3.30798
3.35672
3.32149
3.32293
3.29503
3.29016
3.26122
3.30751
3.30139
3.30803
3.34144
3.36077
3.29685
3.38431
3.33467
3.31718
3.29476
3.37009
3.37971
3.31003
3.32151
3.32767
3.35821
3.31971
3.3448
3.28403
3.3135
3.38537
3.34998
3.40086
3.30022
3.3207
3.32112
3.3833
3.3021
3.38265
3.32769
3.30678
3.30257
3.31363
3.36885
3.34847
3.29041
3.35427
3.34999
3.31403
3.34847
3.379
3.34105
3.34357
3.31535
3.31619
3.29418
3.32173
3.38943
3.31901
3.35771
3.31131
3.33945
3.35367
3.32377
3.31701
3.31553
3.31077
3.31855
3.34109
3.36891
3.35364
3.35888
3.31708
3.30875
3.33454
3.38156
3.35019
3.30581
3.32495
3.31455
3.31719
3.32524
3.34072
3.25654
3.39065
3.28814
3.34592
3.34302
3.31089
3.41672
3.38038
3.38009
3.34929
3.31418
3.33278
3.30652
3.30907
3.30583
3.31972
3.34876
3.35699
3.32813
3.33702
3.34406
3.32863
3.35722
3.32899
3.32492
3.34124
3.26561
3.35869
3.33522
3.28501
3.36339
3.37427
3.37925
3.34732
3.37002
3.27254
3.40285
3.28877
3.36433
3.3461
3.31004
3.30042
3.31753
3.34227
3.31017
3.31677
3.26896
3.24509
3.32031
3.3322
3.3055
3.34908
3.33934
3.29594
3.32971
3.3316
3.41953
3.34462
3.37413
3.31555
3.33725
3.34227
3.3389
3.26512
3.3108
3.27021
3.29755
3.36326
3.33854
3.3453
3.33176
3.34616
3.30057
3.35397
3.34848
3.31558
3.33272
3.31852
3.32726
3.28405
3.29881
3.33016
3.35192
3.30021
3.28934
3.2624
3.34363
3.35587
3.31855
3.33884
3.33509
3.37394
3.3675
3.32243
3.31637
3.29611
3.2899
3.31553
3.30786
3.30557
3.33186
3.40116
3.30134
3.3584
3.32244
3.32647
3.31242
3.3414
3.3229
3.31666
3.25989
3.31903
3.35406
3.29187
3.3239
3.28605
3.34247
3.3408
3.33612
3.35532
3.33358
3.37168
3.3187
3.36549
3.3581
3.31735
3.32623
3.33023
3.32856
3.37097
3.32359
3.32497
3.30969
3.37196
3.35978
3.33635
3.26555
3.31927
3.32915
3.32609
3.34762
3.31146
3.34057
3.32515
3.30693
3.37041
3.37211
3.34035
3.33181
3.35622
3.30522
3.32058
3.33017
3.28313
3.33757
3.28016
3.33802
3.26248
3.32882
3.36509
3.32157
3.3012
3.3134
3.31174
3.27529
3.29514
3.31339
3.3232
3.29441
3.32922
3.28134
3.32913
3.2856
3.29654
3.29412
3.30964
512
637
15
331
3.28814
3.34616
325
SCALARS cell_perimeter float
LOOKUP_TABLE default
6.92885
6.94176
6.96462
7.19562
7.12668
6.82004
7.08019
7.65215
6.9348
6.92806
7.3893
7.00236
6.798
7.2457
7.04368
6.79364
7.17437
6.9695
6.92279
6.97646
6.94391
7.27334
7.24246
7.58096
7.59911
6.95787
7.96596
7.1521
6.90445
7.07063
6.94883
7.04982
8.17947
7.03427
7.12229
7.33956
7.89782
7.51913
7.82569
7.63768
8.26746
8.66036
8.1867
7.7599
7.38176
9.60843
8.03156
7.65162
8.04635
7.65503
8.12325
8.43991
7.78322
8.07017
7.67213
7.21525
7.43599
7.38929
8.80944
7.3239
7.7268
9.71096
8.61967
7.03606
7.15226
7.24211
6.90066
7.09131
7.18489
6.86498
7.77943
7.07344
7.17313
7.07838
7.24074
7.21764
7.78796
7.27176
6.93584
7.87154
8.23834
6.79019
7.0227
7.85182
7.50571
7.97841
6.82272
7.97891
7.08991
6.99744
7.79649
7.31349
7.65186
7.13103
7.93057
7.97019
7.3628
6.94403
8.22324
7.1902
7.17038
6.94307
7.11212
8.05631
7.2171
7.03178
6.85428
7.47228
7.31886
8.5945
8.66389
8.56956
10.1724
7.21563
7.23954
7.0566
6.91782
7.38144
8.26055
7.14129
7.64678
7.2913
8.9496
7.16961
7.2624
8.59332
7.24201
7.12695
7.71974
7.02683
7.28747
7.78915
8.23842
7.32397
7.30994
7.05845
7.05183
8.17046
6.94667
7.31923
8.20784
6.914
7.57789
7.5636
7.35741
7.23023
7.205
9.22664
7.04976
7.33763
7.30842
8.21071
7.09222
7.14095
6.81666
6.83838
8.01839
6.99293
7.54944
8.10766
7.69603
6.8208
10.1662
7.32288
7.12712
6.90622
6.99425
7.15448
7.43057
7.12782
9.42421
7.85779
7.1478
7.42614
7.47517
8.20242
6.9957
7.11382
6.99132
7.9833
10.9341
6.97378
6.92306
7.05655
6.90419
7.34097
6.92994
6.91069
7.39079
7.09129
9.49722
7.02885
7.28978
7.38158
6.91763
7.2229
8.388
7.3274
7.52841
6.97828
8.41395
7.03228
7.20314
7.03896
7.0535
6.89049
10.5292
7.05853
6.92709
6.92689
10.0562
6.91435
7.04997
7.04186
7.33267
7.03189
7.6919
8.2202
7.00014
6.97701
6.93579
7.02946
7.0195
9.6516
7.3698
8.2192
7.08679
7.09072
7.4235
7.0931
7.67035
7.14524
7.10952
7.34494
7.12393
6.95632
6.9304
7.41866
6.92224
7.05777
6.86455
6.9401
7.54765
7.28084
7.0025
6.93636
6.8342
7.16846
6.86421
7.01526
7.95822
8.18098
6.82277
7.08991
7.33323
7.33305
7.12395
7.3385
6.89345
7.11358
7.32199
7.64308
7.46095
7.15975
7.13682
6.93853
8.0692
7.88774
6.89047
7.11823
7.01489
7.00607
6.91023
7.60808
6.96701
7.36432
7.0098
7.40982
7.46833
6.9111
7.44448
6.94059
6.96622
8.58952
6.79878
7.30801
8.45484
7.43457
7.18366
7.0591
6.93807
7.67712
7.29369
7.61676
7.10997
6.961
7.04246
7.24101
8.34586
7.00851
7.1149
6.9838
9.2128
7.25934
7.07471
7.11603
7.98975
7.08339
7.08502
7.68065
6.97696
7.46461
7.00811
6.82545
7.28633
7.14705
6.98502
7.12559
6.82098
7.10316
6.85147
7.73605
7.73562
7.09921
6.91334
7.19459
6.97409
7.20318
6.92347
7.01891
7.2206
7.55628
7.10064
7.03175
6.99337
7.03405
7.65548
7.36227
6.96925
7.30619
7.0888
7.03591
7.29125
8.48855
7.00264
7.18214
7.04721
6.95134
7.53715
9.63248
7.46686
6.9051
7.41556
7.11264
7.19756
6.93653
7.11061
6.87608
6.94421
6.9651
6.91278
6.96114
6.90217
7.2121
7.28242
7.12113
7.13808
6.94665
7.11782
7.0108
6.93019
7.09055
6.92607
7.10093
6.88475
7.68409
7.95311
7.07143
7.38173
7.00154
8.82498
6.84576
7.55588
6.94342
6.86733
6.80905
7.14474
7.08064
6.81902
7.04589
6.89022
7.03045
6.86456
9.02014
6.99792
7.01486
7.11292
7.13861
6.82778
6.90603
6.87814
7.00985
7.72893
6.94131
6.76345
6.97884
6.90077
7.16581
7.60689
7.35063
8.61516
7.01179
6.97346
7.71284
6.94591
6.96329
7.19941
6.87587
7.10466
6.988
7.05617
6.87521
6.92514
7.17921
6.94487
7.441
6.87772
7.40085
6.84994
6.89401
6.92892
6.97033
7.18765
6.88845
6.90425
6.86533
7.02541
7.05638
6.83394
7.05354
6.88143
7.17107
7.31616
7.75594
7.23724
6.8593
6.89184
7.14184
6.94098
6.93303
6.95689
6.86238
6.93613
6.84325
7.03182
7.04709
7.10099
7.04867
7.01483
6.98019
7.03074
7.4465
7.43747
6.83759
6.93945
6.89852
7.04185
7.23445
7.45302
7.00189
6.93628
6.87696
7.25882
7.03894
6.95492
6.7913
6.8791
7.17869
7.10892
6.83796
6.86388
6.83123
6.89483
6.90072
6.92361
7.24366
7.3957
7.17854
7.0358
6.89901
7.10537
7.157
6.83245
6.97903
7.13001
7.77692
7.00552
6.99915
6.8914
7.92039
7.04822
6.9803
6.85125
6.84862
7.03484
6.88974
7.16986
7.09005
7.01615
6.89674
7.01583
7.00499
6.95417
7.03989
7.02938
6.8988
7.35379
7.04111
7.23036
6.91428
7.08592
7.11882
6.91503
7.05218
7.45582
7.01993
6.80504
7.01932
6.96618
7.06263
7.09074
6.95301
7.34543
6.97958
6.90114
6.95962
6.99324
6.87503
7.57619
6.80937
7.16564
6.92065
7.33345
6.99851
7.28845
7.06
6.79767
6.97249
7.01876
7.03924
6.79585
6.96235
7.07074
7.0133
6.82428
7.00364
7.02744
6.9507
7.18523
6.91002
7.32167
6.96279
6.90218
7.33372
7.29368
6.9008
7.05776
6.88577
6.97202
7.01508
6.86022
7.11736
6.96601
6.89743
6.92647
6.86656
7.29478
6.9121
6.90221
6.94642
7.22287
7.35423
6.93401
7.12312
6.93636
6.83026
7.01793
6.93327
7.01527
6.86508
7.16712
7.11217
6.89202
7.0403
7.13284
7.09829
6.93544
6.89484
6.92458
6.94403
6.95809
7.36714
7.20071
7.06233
7.14286
7.20451
6.99982
6.8364
6.84484
7.08584
6.97255
7.1528
6.97423
7.48883
6.96827
7.00652
6.98717
7.46895
7.22911
7.02121
7.19733
6.99491
6.80238
6.91074
7.55987
7.15772
7.23984
7.13173
6.84984
6.9698
6.97643
6.91195
7.03699
6.85358
6.93316
6.93087
6.92328
6.92238
7.20103
6.88146
6.99105
7.32612
6.85488
6.95655
6.98588
6.79427
6.86606
6.83534
7.24685
7.05631
6.91926
7.10216
7.04054
6.89794
7.21838
6.85963
6.90549
6.79303
6.95853
6.95526
6.98257
6.76577
6.98194
6.93349
7.16085
7.07573
6.99542
6.9861
6.88329
6.94474
7.2388
7.48402
6.9343
6.90518
7.35446
7.24575
6.94911
7.11384
6.92172
7.41516
6.95273
6.95153
7.2071
6.98836
6.97167
7.26925
6.92921
6.9357
7.09771
7.05257
6.97628
7.17029
561
25
29
345
3.29186
3.34908
295
SCALARS cell_frequency_modifier float
LOOKUP_TABLE default
3.38104e+18
7.80319e+17
4.50901e+17
4.16095e+15
1.42287e+15
4.5612e+14
2.14081e+13
8.31036e+13
2.37647e+15
1.20333e+17
1.12688e+14
7.52099e+15
5.63044e+11
1.80954e+13
3.74145e+16
1.76865e+15
3.43929e+13
3.89346e+14
5.39225e+11
1.22962e+10
5.56849e+11
6.94031e+12
5.19744e+13
4.47732e+12
4.74687e+11
4.7958e+10
7.95382e+09
1.98806e+10
2.67906e+11
2.17859e+12
9.91799e+14
3.26607e+13
3.24437e+10
6.57148e+09
4.21829e+08
4.83888e+13
7.80177e+11
1.26294e+19
5.09156e+18
1.21975e+18
4.03325e+16
1.15149e+16
5.17047e+15
3.67017e+14
1.03614e+14
3.0062e+12
5.30918e+11
2.88348e+13
1.10709e+14
4.71082e+15
1.02557e+16
2.38734e+16
1.8628e+18
7.27069e+18
10000
10000
5.61291e+17
1.73445e+15
6.66005e+09
1.68491e+15
5.99304e+17
1.33093e+12
1.377e+12
1.68899e+16
2.14455e+13
1.06572e+15
1.00021e+10
1.07854e+11
1.0188e+14
6.88871e+10
2.01868e+09
6.04077e+09
1.48288e+11
1.03817e+17
3.97989e+16
2.79093e+15
2.8408e+10
5.2559e+12
6.52331e+14
10000
5.3188e+09
3.86863e+18
1.98923e+11
2.02373e+10
520259
6.65799e+18
5.94313e+16
2.5037e+18
8.38794e+10
2.23873e+14
3.62075e+18
10000
2.85907e+17
2.36545e+15
1.06948e+17
3.18709e+14
2.46504e+13
1.52463e+14
6.55549e+16
6.75301e+14
1.00237e+15
7.75347e+13
2.13621e+09
6.69936e+11
3.27295e+10
1.73087e+13
2.11644e+11
2.31441e+08
4.71626e+11
6.84656e+12
6.68412e+10
7.93275e+12
3.21967e+09
6.33974e+11
1.32132e+13
3.02339e+09
2.48477e+10
1.49737e+09
2.27569e+11
4.7229e+07
2.55746e+09
6.04604e+09
3.30793e+12
8.60575e+07
3.49312e+08
3.26888e+09
1.59183e+07
5.54574e+06
1.96109e+11
1.35865e+11
2.8318e+09
3.54256e+10
3.44613e+06
6.8744e+08
3.62182e+08
4.11e+08
8.06274e+07
1.423e+08
1.33605e+08
5.27848e+06
9.22462e+10
1.50592e+11
3.69007e+10
6.63707e+09
7507.97
1.25861e+09
6.08713e+07
1.55749e+10
29393.1
3.48493e+09
3.29481e+11
1.62322e+09
1.50485e+07
3.48945e+07
1.00652e+08
1.31909e+07
3.18209e+08
3.98551e+09
904222
6.45695e+07
1.54636e+07
1.49318e+07
5.36707e+08
3.08901e+07
3.73989e+06
8.22673
100230
7.42485e+08
1.09019e+09
155536
3.07817e+10
1.84328e+08
2.17894e+06
337997
2.65073e+06
2.81246e+08
1.98613e+07
4.16959e+06
5.86088e+06
1.33322e+10
1.95375e+09
7.6011e+06
963384
145755
3.35839e+06
1.01794e+08
105924
10919.6
850.024
3.33749
4.03498e+08
426569
845910
2.91495e+06
1.03021e+06
5.08593e+07
2.90964e+08
2.24289e+07
6.14639e+06
2.78195e+06
6.68053e+07
8089.49
519586
5.02099e+06
3.86557e+08
245870
1.06449e+09
97979.2
355517
26200.1
6.20463e+08
56216.7
382.238
362308
159.366
18853.1
601785
3.299e+07
232456
543174
13210.9
2.79355e+06
37222.1
3.73838e+08
102.673
76567.2
130021
319141
9.02136e+07
42544.2
3.58385e+07
49421.7
949.286
1.03301e+06
8382.64
3158.82
17198.8
12991.9
34877.8
68990.5
6800.9
10532.2
1.39096e+06
1.09227
10.7919
179144
34277.4
3.63062e+06
165.612
1.05966e+06
1.16809e+06
1.99854e+07
239.622
688.348
530.279
3673.35
5021.95
22106.4
1724.07
59314.6
841.144
2.05135e+06
75750.7
6583.8
79.7155
134.696
6.63724e+06
1.79689e+06
6.3569
1893.84
20.573
4.22586
10286.4
675.56
11583.4
5.20987
20112.1
70183.4
167918
120.155
9.53922e+06
164.039
3343.37
1.17044e+08
1318.06
116.599
9.14624e+06
496758
484.098
9196.25
265.007
495695
1362.78
807789
2027.73
9790.46
478.545
370.074
630839
608.95
33791
1093.84
109.555
6365.29
4074
20879.5
209686
1130.71
105.903
38663.7
5.31954
135.123
4915.16
2211.65
353.781
742.511
3814.62
214.816
4109.29
3458.81
4.17647
14.8905
403560
215.754
9.81433
1343.49
19.2613
1631.25
339.388
80.8221
134.16
39136.8
15.1394
290.051
3.60249
465.108
466.165
170337
283.037
8.12041
50.6389
163.002
238922
194283
218.253
391.909
36.5922
159.308
44567.7
2044.74
109.156
1.17182
1388.21
148.235
1291.52
49.6026
106.693
18.9881
83.8944
199.45
131.81
321.391
341.248
13.114
1303
972.516
137.832
108.8
33.2537
295.108
3.66749
7162.51
18.1658
84.0267
41.0004
120455
510.129
2969.63
61.7215
182.706
118267
48934.7
160.741
1.74061
45.7391
3.14434
5.34697
228.712
1.23186
9770.18