# vtk DataFile Version 2.0
2D-vertex
ASCII
DATASET UNSTRUCTURED_GRID
POINTS 732 float
0.216406 -3.41224 0
2.66653 -3.27309 0
3.08213 -2.33421 0
2.08548 -1.23687 0
-0.175327 -1.02892 0
-0.933283 -2.50047 0
3.60939 -2.31518 0
4.20689 -1.47777 0
3.31744 0.0651813 0
2.26256 -0.219337 0
1.1237 1.07189 0
-0.552209 1.59389 0
-1.34992 0.338802 0
-1.50689 0.304206 0
-2.0669 -1.35332 0
-1.57932 -2.25219 0
4.77426 -1.65172 0
5.60931 -0.796039 0
3.81894 0.795351 0
3.54613 0.736187 0
2.69663 1.7207 0
1.62779 1.66366 0
1.0777 5.29334 0
0.206509 5.29066 0
-0.655345 3.44265 0
-1.89314 2.56668 0
-1.85523 0.661675 0
-3.15374 0.401583 0
-3.69133 -0.621021 0
-3.40655 -1.33946 0
6.67748 -0.815484 0
7.31838 -0.111927 0
7.18043 1.20623 0
4.99697 2.44346 0
5.48198 3.00947 0
3.17375 4.40727 0
2.45144 5.70499 0
1.55708 5.88812 0
0.693725 9.04769 0
-0.913812 9.12722 0
-0.649214 6.12393 0
-2.18649 5.2224 0
-3.26469 3.70764 0
-4.22518 3.76151 0
-4.99041 2.36789 0
-6.40686 2.08735 0
-6.71564 1.02578 0
-5.23154 -0.355616 0
7.6188 1.81721 0
7.30549 2.87054 0
6.56593 3.31386 0
5.89382 5.39291 0
3.57582 6.64956 0
3.52819 7.50357 0
2.11302 9.13523 0
2.66727 9.82969 0
-1.87843 10.4926 0
-1.80557 9.62583 0
-3.05574 8.33543 0
-2.76569 6.20038 0
-4.40644 6.54539 0
-5.80682 5.25625 0
-7.75349 3.80038 0
-7.61911 3.26617 0
8.23582 3.25389 0
8.23584 3.25638 0
6.81298 5.34435 0
7.28083 6.53139 0
6.05896 7.83705 0
6.28958 8.50828 0
5.55416 9.53381 0
5.32351 10.0071 0
-2.60417 12.779 0
-2.8427 12.4916 0
-6.10329 9.71057 0
-5.43564 8.90214 0
-6.16972 7.55753 0
-6.08615 7.38647 0
-8.73309 4.31993 0
-8.58841 3.96774 0
9.77955 3.51719 0
10.1237 4.4596 0
9.34889 5.46691 0
10.5325 5.85735 0
10.277 7.38733 0
10.4895 8.09463 0
9.85158 12.7785 0
10.9103 14.8783 0
-9.72356 14.8342 0
-9.71547 14.8055 0
-10.0935 8.92281 0
-9.80262 8.39703 0
-10.1483 7.7694 0
-9.41652 6.66616 0
-10.2414 5.42106 0
-9.79259 4.43884 0
3.55002 -5.1488 0
4.76187 -4.62174 0
5.60222 -4.2318 0
7.97757 -2.67918 0
9.2935 -1.26651 0
10.6654 1.0437 0
10.7585 1.20638 0
11.4777 2.26116 0
12.3029 4.172 0
12.5285 4.9489 0
12.7899 8.46235 0
13.4946 15.2326 0
-13.2523 15.3173 0
-12.6966 8.89713 0
-12.619 7.62237 0
-12.264 5.08365 0
-11.4066 3.13875 0
-10.5576 2.03517 0
-9.9626 1.3122 0
-9.07581 -0.0116068 0
-7.17263 -2.16465 0
-5.11937 -3.58535 0
-3.03604 -4.60283 0
-0.0481829 -5.45845 0
12.6862 9.99211 0
8.65341 10.2461 0
-12.9616 11.3771 0
-10.0846 12.1805 0
-0.411755 3.10246 0
0.889766 3.17842 0
-1.91759 5.18413 0
-1.19894 3.44416 0
4.44129 4.58179 0
4.86411 5.49587 0
0.409157 10.6227 0
0.173146 9.55592 0
-1.14943 7.47027 0
-2.35324 7.19385 0
5.89292 5.39522 0
5.1083 7.37861 0
4.14148 7.9007 0
4.17334 9.22963 0
2.19022 10.8192 0
2.18815 10.8178 0
-2.41747 10.7531 0
-3.98757 9.06514 0
-3.5493 8.36009 0
-4.52267 7.12982 0
1.23155 0.426577 0
-0.23405 -0.544708 0
6.36066 1.46892 0
5.24014 -0.0482249 0
4.99498 2.44497 0
2.98755 3.29441 0
-8.96162 10.5351 0
-5.91192 10.3877 0
2.98505 3.2945 0
1.56219 3.99852 0
-9.4284 6.60906 0
-8.02114 5.98622 0
-0.963647 -2.51541 0
-1.41754 -5.19844 0
13.1564 33.6877 0
14.7418 34.5833 0
1.03165 -3.0823 0
1.16406 -1.62695 0
2.51596 7.90922 0
1.32024 6.89887 0
8.46227 9.76485 0
5.55457 9.5363 0
9.51239 20.5533 0
0.103907 12.5 0
-2.85484 -1.6027 0
-3.60085 -4.35545 0
-4.434 1.44052 0
-5.34563 0.268754 0
-5.75641 -3.19957 0
-4.65103 -0.756735 0
0.387727 7.3939 0
-0.545153 6.9729 0
9.31521 5.32659 0
7.70407 4.57034 0
5.41459 -1.32525 0
7.10263 -3.35281 0
1.50192 -5.55126 0
1.56894 -3.52278 0
-6.29301 0.40242 0
-7.91564 -1.46386 0
-5.42244 4.15478 0
-6.76325 2.92924 0
7.44666 1.33192 0
9.88122 -0.396405 0
-12.5017 6.47062 0
-9.43921 6.62963 0
12.8627 6.98261 0
10.76 6.85857 0
-2.85446 2.76395 0
-3.78604 1.4203 0
-9.55126 0.744144 0
-6.75798 2.35886 0
-3.60188 6.02058 0
-4.38667 4.05903 0
-6.84834 6.15965 0
-6.43725 5.35537 0
8.26742 6.67647 0
8.48909 7.15961 0
-0.816813 12.363 0
-0.634441 11.3301 0
12.6909 10.001 0
10.0965 11.3572 0
10.0415 13.6821 0
1.9284 11.325 0
7.9214 8.42528 0
9.17945 9.12121 0
-7.32168 7.67138 0
-7.65575 8.43244 0
-2.26686 14.6339 0
0.839256 13.7662 0
-10.0122 12.6858 0
-4.10273 12.3674 0
9.17823 9.1234 0
12.6927 9.50666 0
-10.7926 13.8698 0
-13.3157 14.3128 0
-12.7434 9.87934 0
-9.22005 10.1111 0
13.0606 17.999 0
10.4003 16.4475 0
8.34026 10.692 0
6.21879 10.9139 0
-9.22009 10.1085 0
-7.33332 9.38771 0
2.37206 14.267 0
4.11312 12.6389 0
-4.4294 10.8292 0
-3.64902 10.1323 0
4.85544 12.378 0
3.91221 10.8765 0
13.0857 11.6868 0
10.3221 11.9034 0
-2.89168 14.2337 0
-4.57397 13.3278 0
-12.4712 28.006 0
0.083674 15.3141 0
-6.51407 10.9619 0
-4.45981 12.6187 0
-12.8179 10.5924 0
-9.42491 11.1553 0
6.18126 16.3541 0
8.24926 14.5392 0
-1.06882 14.1061 0
-0.630301 12.5681 0
-10.5061 18.1466 0
-13.5384 17.4137 0
10.4339 38.4116 0
2.32294 15.3023 0
-3.04437 16.7638 0
-10.4157 18.5384 0
-10.7532 13.176 0
-13.1845 12.4197 0
-6.61858 14.7198 0
-6.08097 13.5841 0
-6.3854 11.663 0
-7.22603 12.6266 0
13.3748 13.4039 0
10.838 14.2172 0
-11.2038 19.8113 0
-13.983 20.1226 0
6.0237 11.9957 0
4.85661 12.3758 0
10.2935 15.5604 0
8.32396 15.1598 0
3.96008 13.7283 0
6.73199 15.8065 0
-2.06223 15.9604 0
-0.455724 16.2669 0
14.3915 21.3033 0
11.7918 22.0372 0
0.307883 15.2674 0
1.31511 15.9917 0
12.3702 23.9256 0
4.04086 15.8541 0
13.2122 12.5333 0
10.162 13.1492 0
-8.4675 14.2638 0
-8.51559 13.3985 0
-9.32327 11.4778 0
-7.23587 12.2638 0
-10.0816 17.6957 0
-6.25413 16.4128 0
7.69488 41.1421 0
8.11087 42.868 0
1.74304 13.6355 0
2.49696 12.1115 0
-3.92779 15.8537 0
-3.87714 14.7686 0
-13.3734 16.5439 0
-10.3063 17.0668 0
-0.0730291 17.6985 0
-0.243843 17.5928 0
7.73308 12.9037 0
7.33522 13.7922 0
8.59903 11.2145 0
7.58119 12.6053 0
-11.2084 19.1547 0
-13.7539 18.3666 0
-2.60799 16.7422 0
-1.63824 18.0908 0
1.61667 17.033 0
3.3944 16.9986 0
6.30616 13.9664 0
6.06798 14.4981 0
-7.53792 17.8294 0
-7.32705 18.1938 0
-9.19563 15.5187 0
-6.47039 15.6737 0
4.01458 15.7958 0
4.7215 14.5999 0
-10.5852 21.7012 0
-3.84366 18.0937 0
14.8211 22.5464 0
12.6469 23.1273 0
-15.2344 27.8082 0
-13.1179 27.401 0
8.6698 16.9898 0
7.70609 15.9196 0
13.1041 18.6868 0
9.68462 19.7359 0
4.24393 18.2435 0
6.12686 18.9557 0
1.41952 19.4691 0
3.61917 18.6898 0
-0.606679 25.1304 0
-3.3272 24.0087 0
-3.09327 22.3441 0
-4.50353 19.9444 0
-6.24887 15.3536 0
-4.06682 14.6682 0
-9.82238 20.4885 0
-8.31575 19.2785 0
8.00538 23.5913 0
7.501 20.7454 0
-13.2615 15.7123 0
-9.56677 16.0958 0
-9.54275 16.1531 0
-7.32443 17.0765 0
-0.0308779 19.6693 0
0.189149 19.3894 0
13.2408 32.3837 0
2.41527 22.6692 0
16.0845 29.4846 0
14.1934 29.2271 0
-14.7507 22.5351 0
-12.1533 22.7748 0
-5.41149 16.7304 0
-5.19768 17.8231 0
8.23414 17.7284 0
7.03545 17.6731 0
1.45865 17.291 0
2.06017 18.354 0
10.5611 16.0557 0
13.4221 16.2178 0
13.0085 18.242 0
8.6818 17.2947 0
-11.6274 23.6518 0
-4.47577 20.1537 0
-2.05375 19.0202 0
-3.49872 18.944 0
3.98921 23.1311 0
4.61717 22.505 0
-5.84307 18.4502 0
-5.66546 19.461 0
4.2486 17.8189 0
6.21435 16.8575 0
-1.75036 22.0978 0
-0.0561682 23.3376 0
2.18873 28.4001 0
11.2456 31.599 0
-7.19585 39.5832 0
-8.56052 40.9486 0
-2.09391 40.9025 0
-2.28277 24.725 0
-14.2172 20.7624 0
-11.9286 22.1505 0
-1.68939 19.5954 0
-3.50971 20.7048 0
-7.44133 21.2553 0
-5.89673 21.3868 0
12.9903 27.611 0
11.0756 30.2728 0
5.27462 20.9437 0
6.95762 21.3741 0
11.7537 22.1344 0
8.873 22.5766 0
13.5882 19.6935 0
11.4712 21.5032 0
-12.8232 26.3174 0
-3.65906 21.8697 0
15.9282 27.3364 0
13.9992 28.0181 0
2.57176 20.5566 0
3.77646 19.7775 0
-15.1699 24.4066 0
-13.0006 25.127 0
-1.3584 26.7511 0
4.30669 24.2902 0
0.460503 20.9268 0
2.15759 21.3838 0
-8.30474 19.352 0
-6.97936 20.1646 0
8.74815 18.8185 0
7.18415 19.5937 0
-1.33612 21.3146 0
-2.0283 20.3042 0
13.0065 18.252 0
8.79558 18.6807 0
-2.362 24.452 0
-1.19529 23.143 0
-5.76829 21.8919 0
-4.7454 22.3705 0
-4.3603 24.3774 0
-4.95367 23.7673 0
-13.9873 20.1317 0
-10.5608 21.3698 0
5.70949 24.4612 0
6.38744 23.4126 0
0.163635 29.5596 0
2.65764 41.4898 0
-8.17149 22.3096 0
-7.73912 23.3387 0
0.521638 42.5237 0
0.0499476 44.2573 0
-9.12346 28.9973 0
-7.40789 30.5854 0
10.0448 21.1299 0
8.77053 22.1843 0
15.1892 23.7773 0
12.8196 24.4205 0
6.15424 22.838 0
7.0837 21.764 0
2.59818 21.0419 0
4.42571 21.7351 0
3.67815 24.846 0
5.18178 28.5378 0
5.12589 20.2819 0
6.21056 19.2756 0
1.99578 23.0564 0
2.23695 24.2755 0
13.2799 19.1364 0
10.0292 20.8974 0
-3.92115 36.1699 0
-3.15682 31.8927 0
-12.6272 29.9617 0
-14.7712 30.4408 0
0.0767831 21.3974 0
0.541392 22.6759 0
-7.12833 23.4201 0
-6.75437 24.0832 0
-9.77237 20.8889 0
-7.44123 21.2528 0
9.00694 26.1294 0
10.1311 24.4649 0
-15.3615 26.3604 0
-13.0971 26.0563 0
-7.12027 24.9798 0
-6.95893 26.6174 0
3.57228 32.9419 0
7.78245 31.9078 0
-11.847 32.1613 0
-8.55978 30.4333 0
8.76117 26.6419 0
5.84319 27.4723 0
2.65049 28.0033 0
1.71151 26.0687 0
-4.43775 26.1276 0
-4.3392 26.1671 0
9.1572 40.4908 0
10.1968 41.6727 0
0.227062 24.3188 0
1.60246 24.7876 0
-9.19668 24.413 0
-9.2772 24.949 0
4.34396 37.2874 0
3.13103 40.2893 0
-2.89444 25.6256 0
-2.24444 26.6842 0
13.854 29.5682 0
11.873 29.2582 0
-4.77781 41.4126 0
-5.16972 43.0848 0
-6.29123 39.9122 0
-4.54406 36.0676 0
10.4344 24.0054 0
10.0994 22.9379 0
-9.90866 27.2239 0
-8.71122 25.424 0
12.8322 26.8987 0
10.6133 26.0144 0
-1.54355 36.4158 0
-0.131505 31.6345 0
-9.78259 22.4305 0
-10.1543 23.5531 0
15.8252 31.2457 0
14.1489 30.7922 0
15.5008 24.8735 0
13.2288 25.6812 0
11.5363 36.9313 0
9.11832 34.6607 0
-0.978675 29.5287 0
-0.860295 27.7607 0
-9.94253 36.49 0
-11.7747 37.3067 0
3.71439 25.8115 0
2.50675 26.4965 0
7.25096 30.7462 0
7.23792 27.468 0
6.22566 25.1372 0
5.15067 26.005 0
-5.18335 29.3212 0
-4.26948 29.921 0
8.41507 24.4219 0
8.16976 24.86 0
5.59222 30.3547 0
5.27972 33.089 0
-12.3833 30.2384 0
-9.87028 28.9421 0
11.4285 37.9995 0
12.7289 38.9455 0
-8.14072 28.1131 0
-5.2202 28.7505 0
-8.40957 37.5151 0
-6.92205 34.4594 0
2.89916 32.5381 0
1.54436 33.3414 0
-15.0256 29.1383 0
-12.6212 28.6143 0
-14.3301 32.0744 0
-12.7238 31.5209 0
-0.506886 38.6637 0
0.467214 38.7891 0
[...]
CELL_DATA 367
SCALARS cell_division_count float
LOOKUP_TABLE default
1
0
1
0
0
0
1
0
0
1
1
1
1
1
1
1
0
1
1
1
1
1
1
0
1
1
1
1
1
1
1
1
2
4
3
1
1
0
0
1
1
0
0
0
1
2
3
0
1
0
0
1
1
1
1
1
0
0
3
0
1
2
3
1
1
1
1
1
1
1
2
2
1
1
1
1
2
1
1
1
3
1
1
2
9
1
1
1
1
1
1
1
1
1
1
1
1
1
1
1
1
1
2
3
5
2
1
3
5
2
2
2
5
3
2
4
2
3
5
5
6
3
3
6
3
4
6
9
3
5
4
4
8
5
6
6
5
4
5
14
5
5
5
7
5
4
6
4
10
5
3
4
6
6
6
7
6
6
11
7
8
7
6
7
8
14
11
6
8
9
4
7
8
13
6
7
7
8
8
3
6
12
10
11
9
7
11
13
9
13
8
11
10
11
9
9
5
14
6
10
8
13
10
10
8
11
6
10
11
14
8
11
13
11
9
12
9
8
9
11
13
9
11
6
15
12
11
12
11
13
8
13
13
12
15
14
10
7
12
13
13
11
12
11
14
9
14
15
13
12
7
9
13
15
9
14
14
14
13
13
12
12
7
12
15
14
8
9
14
14
14
13
14
14
13
9
14
14
14
12
14
14
14
8
15
9
9
14
13
13
13
12
12
10
12
12
13
15
7
13
13
15
10
14
14
14
8
13
14
12
13
14
15
14
13
14
15
15
12
15
14
9
11
14
14
14
13
14
14
13
10
7
10
13
14
14
15
13
15
13
13
14
15
12
14
14
14
13
10
8
14
14
13
14
14
13
9
14
14
15
14
14
14
11
10
13
14
SCALARS cell_time float
LOOKUP_TABLE default
2021
2.22229e+13
2041
4.48239e+13
2.67348e+11
1.25633e+10
2051
2.68224e+09
9.19769e+11
2041
2041
2031
2001
2051
1971
2011
1.22803e+06
2051
2021
2051
2051
1951
1991
25833.4
2051
2051
2051
2051
2051
1941
2001
1941
1901
1641
1791
1891
2031
1.00108e+18
2.94533e+15
2001
1991
107133
3395.76
2107.34
1981
1881
1681
2098.01
1991
4749.01
2366.18
1971
2011
2021
2031
2001
1.12104e+13
23216.3
1471
4087.96
2001
1921
1741
2051
2051
2051
2051
2051
2051
2051
1931
1811
2051
2041
2041
2041
1871
2031
2031
2031
1171
2021
2021
1881
801
2021
2011
2011
2001
2001
2001
2001
2001
1991
1991
1991
1981
1971
1971
1951
1941
1941
1931
1801
1621
1901
1891
1741
1521
1881
1881
1881
1171
1461
1871
1491
1811
1801
1531
1491
1381
1761
1741
1371
1741
1461
1471
1161
1681
1531
1661
1661
441
1471
1361
1391
1591
1371
1561
391
1531
1531
1521
1221
651
1491
1261
1241
891
1471
1461
1461
1461
1451
1391
1191
1381
1371
731
801
721
1181
771
1111
1181
71
861
1261
1251
801
1241
1221
1221
71
581
1051
1191
911
1181
1171
901
591
1041
801
1121
1111
741
531
221
201
861
911
1031
621
801
601
1001
391
981
981
381
401
951
921
911
911
901
891
871
411
861
851
131
841
61
291
801
581
801
801
521
801
791
771
131
101
741
741
731
511
721
271
261
231
231
431
661
181
641
631
21
631
251
31
111
601
391
241
81
591
281
371
211
271
271
271
271
271
341
511
331
331
271
291
51
11
441
441
101
431
71
211
411
211
401
401
401
391
391
211
391
151
391
381
251
191
371
251
251
341
171
331
321
311
291
291
201
141
281
281
271
271
81
271
271
271
81
261
101
251
171
81
251
251
251
71
241
111
231
231
51
221
221
51
91
211
131
61
41
71
31
181
181
171
61
151
141
131
131
131
121
111
111
101
101
101
91
81
81
81
81
71
71
71
71
71
61
61
61
51
51
51
41
31
31
21
11
SCALARS cell_area float
LOOKUP_TABLE default
3.2418
3.29996
3.29342
3.35595
3.35127
3.34376
3.32719
3.37478
3.34868
3.28166
3.33685
3.28275
3.38673
3.31969
3.30609
3.32987
3.39857
3.28941
3.34682
3.39726
3.39241
3.34006
3.33942
3.37236
3.35936
3.37687
3.43958
3.40352
3.39196
3.32987
3.24689
3.29766
3.34994
3.33471
3.44693
3.25017
3.34557
3.2523
3.26077
3.24828
3.23648
3.27766
3.26169
3.27831
3.21999
3.28505
3.25741
3.26312
3.25895
3.24787
3.26756
3.2731
3.21615
3.25679
3.24442
3.24187
3.20933
3.21697
3.27161
3.19596
3.24586
3.30685
3.26988
3.28066
3.3377
3.28545
3.39896
3.3525
3.28078
3.3582
3.4517
3.35285
3.35766
3.28692
3.24848
3.27524
3.34219
3.35173
3.23137
3.22174
3.22305
3.25844
3.3357
3.33034
3.36696
3.22228
3.29661
3.25192
3.37092
3.28787
3.22417
3.20346
3.21568
3.30407
3.25112
3.24438
3.25871
3.32429
3.26278
3.30074
3.28993
3.26368
3.40129
3.23377
3.29635
3.24101
3.32917
3.38687
3.29215
3.27894
3.26017
3.27216
3.27759
3.29304
3.24637
3.31591
3.35732
3.40408
3.25708
3.42738
3.30146
3.35107
3.27237
3.34606
3.406
3.26661
3.4418
3.39549
3.21758
3.28065
3.33521
3.20964
3.28915
3.3709
3.31843
3.3526
3.36509
3.26925
3.36617
3.3047
3.25191
3.2836
3.31642
3.27452
3.25131
3.34888
3.3985
3.27285
3.35597
3.31563
3.30138
3.23847
3.37055
3.35905
3.38524
3.38718
3.34004
3.30754
3.35385
3.2807
3.26418
3.41153
3.29299
3.31867
3.36578
3.36028
3.35697
3.32828
3.29788
3.35769
3.27469
3.32623
3.42792
3.26921
3.27853
3.23645
3.36063
3.37033
3.38575
3.24259
3.30002
3.31019
3.42797
3.37875
3.3885
3.31546
3.37342
3.37868
3.23589
3.30415
3.28276
3.4024
3.39751
3.28635
3.35404
3.26966
3.24256
3.29311
3.24355
3.33827
3.26867
3.30891
3.41135
3.35136
3.30322
3.3815
3.29305
3.33359
3.37671
3.35397
3.31255
3.38047
3.34181
3.34497
3.24176
3.30645
3.34348
3.28461
3.36566
3.36318
3.42567
3.34845
3.38459
3.28587
3.33646
3.29863
3.38692
3.31806
3.29933
3.35711
3.22565
3.34507
3.39593
3.25519
3.32686
3.38202
3.40767
3.29303
3.37254
3.37621
3.28206
3.34573
3.26261
3.29141
3.30271
3.33074
3.37391
3.28889
3.31352
3.31199
3.2966
3.25668
3.29337
3.31956
3.3026
3.36243
3.28336
3.3324
3.36456
3.32835
3.30458
3.29509
3.29924
3.33798
3.3104
3.33449
3.28084
3.2859
3.36364
3.32906
3.27229
3.27737
3.36469
3.32745
3.35497
3.28854
3.32827
3.33557
3.3547
3.29885
3.26295
3.34298
3.32888
3.27161
3.34358
3.25489
3.30873
3.29177
3.29732
3.31681
3.31537
3.30243
3.32579
3.28952
3.35927
3.33938
3.33395
3.34258
3.31361
3.33018
3.31415
3.32726
3.29755
3.3184
3.31736
3.30351
3.27152
3.35672
3.3609
3.29376
3.31674
3.30622
3.28008
3.35462
3.33783
3.27758
3.3819
3.36805
3.31147
3.32271
3.31054
3.28733
3.29703
3.26301
3.2655
3.30314
3.29872
3.30709
3.2906
3.2909
3.2998
3.30162
3.30683
3.30649
3.33568
3.28804
3.28279
3.24052
3.31721
3.33348
3.3199
3.33872
3.28552
3.30343
3.32974
3.28693
3.33198
3.28871
3.25241
3.35987
3.34991
3.36003
3.26931
3.30913
3.26935
3.2957
3.31241
3.29682
3.33524
3.30903
3.26614
3.32311
3.2974
3.31204
3.32769
3.26433
3.2893
SCALARS cell_perimeter float
LOOKUP_TABLE default
6.9303
6.94506
6.96287
7.20265
7.13178
6.82046
7.07546
7.64836
6.93889
6.92629
7.3901
7.00339
6.80221
7.23824
7.04504
6.79676
7.18139
6.96967
6.93078
7.01838
6.93564
7.26446
7.24333
7.57769
7.58441
6.95069
8.04325
7.08828
6.8908
7.06941
6.95165
7.04781
8.21658
7.03049
7.0464
7.34221
7.90651
7.52769
7.8367
7.64708
8.28359
8.68488
8.20594
7.77622
7.38713
9.54074
7.99848
7.67277
8.06624
7.67083
8.14898
8.46916
7.79433
8.08313
7.67942
7.21995
7.4425
7.3949
8.40345
7.3285
7.73926
9.61053
8.59836
7.03651
7.14268
7.23837
6.91293
7.06754
7.17396
6.86915
7.85607
7.05381
7.16287
7.07825
7.24074
7.21865
7.81073
7.26285
6.93657
7.88076
8.18616
6.79149
7.01557
7.91115
7.50764
7.99046
6.82551
7.9926
7.05758
7.00005
7.80562
7.31586
7.66304
7.12923
7.94325
7.98716
7.3722
6.94565
8.24679
7.18352
7.17037
6.9457
7.14556
8.02199
7.16565
7.03009
6.84905
7.29196
7.30048
8.58065
8.58643
8.59269
9.87603
7.21135
7.24876
7.06869
6.92204
7.5243
8.21685
6.95038
7.68378
7.25063
8.958
7.24535
7.24573
8.16746
7.07965
7.03222
7.70055
7.02302
7.29342
7.77013
7.50913
7.4057
7.22934
7.12844
7.05122
7.70696
6.89511
7.1264
8.16739
6.89496
7.58139
7.59127
7.35422
7.2184
7.37124
8.91782
7.10257
7.29272
7.26925
7.88885
7.0734
7.2237
6.85906
6.88279
8.01173
7.02215
7.60021
7.504
7.39475
6.98762
9.21281
7.35512
7.03647
7.14151
6.97579
7.23918
7.39618
7.14708
9.22199
7.91009
7.10774
7.31647
7.16551
7.79981
7.03755
7.12355
7.27352
7.94461
10.4008
6.84614
7.1894
7.14375
6.90099
7.38952
6.89231
6.90872
7.30862
6.80034
8.74021
7.04324
7.57622
7.06447
6.9447
7.07573
7.90831
7.11098
7.333
6.99889
7.97623
6.97388
7.3247
7.11936
7.10687
6.92349
9.71174
7.04529
7.01469
6.95644
9.31547
6.94314
7.70242
7.13206
7.31956
6.98782
7.37877
7.59206
7.09401
7.15477
7.03093
7.13082
7.04467
8.8263
6.96074
7.5373
7.11025
7.17679
7.39562
7.11905
7.46794
7.18763
6.94359
7.0198
7.10409
6.86763
7.06448
7.07368
6.92731
7.08925
6.87995
6.9272
7.28894
7.60431
6.85087
6.92563
6.81811
7.05704
6.81859
7.01212
7.14949
7.65431
6.89439
6.92505
7.28829
7.2425
7.0548
7.40853
6.83722
7.1416
7.17341
7.32318
7.06809
7.22301
6.86211
7.02997
7.47455
7.28372
7.44457
6.95504
6.91116
6.86207
6.8681
7.29225
6.96178
7.15432
6.99689
7.10182
7.17701
6.87322
7.27304
6.99481
6.89612
8.08744
6.87068
7.32506
7.65577
7.17615
7.12939
7.03304
6.83384
7.48067
7.13021
7.16868
7.21255
6.8302
6.85035
6.83661
7.24573
7.20199
7.15784
6.82205
7.30401
7.1839
7.04063
7.11638
7.37279
7.04238
7.24364
7.53037
6.80832
6.95254
6.9236
7.19374
7.25511
7.01087
6.93121
7.48665
6.88223
7.02803
6.98194
7.12782
7.23312
6.93568
6.9255
7.01657
7.07527
6.9423
7.22644
6.85912
7.20973
7.07386
7.60632
6.79662
6.87455
6.95254
7.07015
7.21708
6.85475
6.75966
6.79167
6.88295
7.26229
7.5676
6.8726
7.05075
7.0567
6.91584
7.33146
7.69669
6.78914
7.13187
7.36165
6.89771
6.96799
6.85305
7.39979
7.02634
6.99573
6.83535
6.95798
6.90226
6.79861
7.87118
7.12501
7.02748
6.97368
SCALARS cell_frequency_modifier float
LOOKUP_TABLE default
9.05315e+17
2.15019e+15
1.47269e+15
5.00453e+14
1.51659e+14
2.02463e+13
1.60307e+11
2.20995e+12
1.68678e+14
1.20918e+16
2.6189e+12
1.697e+14
2.96421e+09
6.56762e+10
1.36398e+13
6.19024e+13
1.26371e+12
2.05464e+11
2.11531e+09
2.39376e+07
2.60682e+09
3.7001e+10
5.15517e+11
6.8353e+10
2.44943e+09
1.30368e+08
1.63859e+07
3.38787e+07
8.87725e+08
5.34857e+09
1.80907e+13
3.09218e+09
8.31286e+07
7.77248e+06
323785
1.11558e+11
1.94408e+09
8.16986e+18
2.35499e+18
3.48008e+17
3.1921e+15
5.42803e+14
1.90087e+14
5.39498e+12
1.06228e+12
8.82049e+09
3.6285e+08
5.45327e+10
3.13514e+11
4.83213e+13
1.43896e+14
4.74674e+14
2.55633e+17
2.24495e+18
1.36855e+19
10000
1.26543e+17
4.66884e+13
1.98383e+06
1.16283e+13
4.83032e+16
3.27358e+07
1.18742e+09
4.7472e+14
1.79593e+11
1.48164e+13
1.634e+07
2.2811e+08
6.60882e+11
1.94607e+08
2.72738e+06
5.36173e+06
3.05727e+08
2.28473e+15
2.23802e+15
5.07947e+13
2.5024e+07
4.83274e+10
3.39416e+12
9.89524e+18
3.82305e+06
1.25698e+18
4.11171e+08
2.95557e+07
271.657
1.83043e+18
4.36707e+13
4.20458e+17
2.07629e+08
3.30123e+11
1.58276e+18
10000
1.59077e+16
2.61764e+11
1.20494e+16
1.25863e+12
1.52423e+11
1.62772e+12
1.97577e+15
6.45446e+10
3.33547e+11
5.98622e+11
2.40236e+06
1.37004e+09
706006
7.96587e+10
2.33872e+08
206556
1.29874e+07
2.68019e+10
3.01483e+07
1.05737e+10
1.94492e+06
3.41804e+07
2.09902e+10
1.07291e+06
3.07575e+07
2.14003e+06
3.45584e+08
33699.8
12768.9
4.61005e+06
3.55038e+09
57857.3
322294
835046
12444.6
3690.91
1.07859e+08
7.98552e+07
1.42273e+06
3.70357e+07
47.5282
731487
55028
378014
57678.3
36155.7
100584
88.2114
1.13657e+08
8.14974e+07
9.85591e+06
2.41238e+06
120.425
1.16749e+06
32917
5.44946e+06
39.6088
871769
7.1931e+06
339127
10673.5
24836.1
81169.6
5619.09
101033
281863
244.595
14460
2155.86
9823.42
8678.59
9083.63
2737.99
0.394455
78.5899
268416
6015.06
100.903
1.23098e+07
44156.9
1720.06
217.116
498.848
40996.9
10195.2
2184.23
4448.24
1.12015e+07
16860
252.148
681.34
135.292
1768.2
29432.6
116.75
15.7393
124.883
1.30704
76179.4
394.797
408.82
694.951
626.548
18062.5
81530.7
130.472
939.328
1758.26
9078.68
20.9887
448.755
1788.03
2875.13
214.898
17090.2
105.681
227.113
13.5242
1228.63
52.2519
1.39444
167.879
164.872
7.42236
197.078
6618.64
172.794
420.28
14.9261
1782.4
42.9005
136735
0.735667
2.11991
135.087
151.484
2365.26
35.9026
4393.24
34.2565
1.92396
354.66
9.59335
5.39662
16.5331
3.72926
44.6453
29.2969
104.401
17.4332
474.332
6.2351
1.36299
80.4963
10.8174
118.658
0.990194
169.99
6.82194
3398.56
3.06179
2.69255
1.40974
6.54602
551.019
21.633
2.96208
32.5901
3.79388
16.6102
1.75486
8.28907
1.07507
0.955332
1086.29
376.799
0.383932
5.80365
107.551
106.961
4.47968
1.86074
18.989
13.8317
13.0721
17.3639
36.4736
2.05816
1995.74
0.906509
8.47186
17334.8
1.68434
156.64
18.2879
10.2836
5.78101
16.518
1.61608
16.5077
4.47038
13.1438
2.3819
6.99879
1.26141
1.0897
1.68919
2.36304
26.4408
4.02399
1.99036
12.7678
7.9723
30.2665
115.764
2.75424
0.54763
8.84404
0.814365
1.33016
370.052
1.26561
1.57955
115.891
2.4195
0.560624
4.53905
4.85546
1.02204
20.5644
3.63417
120.281
100.122
5.45409
1.93869
1.06766
7.49433
4.6301
2.26916
1.44633
1.43613
1.62087
0.548903
37.3394
181.579
357.614
1.58795
0.584703
0.756308
0.533123
180.865
1.71859
0.758753
55.7845
0.620752
13.2139
102.505
0.568387
0.757019
0.404952
199.257
1.31939
149.186
2.54021
1.31595
2.28475
0.640462
1.27474
122.395
0.781831
2.44089
1.21296
0.823308
103.098
8.57032
SCALARS cell_area_modifier float
LOOKUP_TABLE default
100
1.59913
2.83398
0.412591
0.442435
0.480052
0.680259
0.343151
0.456184
100
0.536158
100
0.323491
0.734735
1.16693
0.612177
0.307242
6.16807
0.461926
0.311149
0.315157
0.503084
0.510076
0.34969
0.388565
0.338405
0.290233
0.302182
0.316516
0.617325
100
1.93668
0.447834
0.56505
0.287956
100
0.470815
100
100
100
100
100
100
100
100
100
100
100
100
100
100
100
100
100
100
100
100
100
100
100
100
1.081
100
100
0.53227
100
0.305961
0.434577
100
0.394836
0.286831
0.429491
0.39913
38.6316
100
100
0.496281
0.437165
100
100
100
100
0.544107
0.602133
0.35998
100
2.30094
100
0.351364
14.9796
100
100
100
1.24618
100
100
100
0.706449
100
1.53236
5.28058
100
0.304691
100
2.45485
100
0.627887
0.322071
3.8836
100
100
100
100
3.3516
100
0.825647
0.401312
0.300943
100
0.293717
1.47094
0.445118
100
0.464851
0.299714
100
0.28909
0.313809
100
100
0.560733
100
7.41414
0.353054
0.757482
0.432019
0.367184
100
0.361755
1.18578
100
100
0.816463
100
100
0.453366
0.308533
100
0.410285
0.83504
1.50102
100
0.354761
0.392723
0.326367
0.319269
0.506556
1.05007
0.426992
100
100
0.296087
3.68844
0.749745
0.363546
0.382491
0.405749
0.650133
1.88689
0.396971
100
0.693107
0.292547
100
100
100
0.380508
0.356484
0.324923
100
1.56503
0.979973
0.291385
0.335313
0.317887
0.844649
0.34639
0.336852
100
1.22538
100
0.303431
0.309835
81.5556
0.422082
100
100
3.07113
100
0.520937
100
1.02086
0.297286
0.439784
1.31306
0.332277
3.20524
0.578408
0.339972
0.424523
0.896215
0.333788
0.49966
0.476933
100
1.13097
0.486415
100
0.365356
0.374681
0.294898
0.459037
0.327825
100
0.540103
1.8396
0.320664
0.773446
1.67198
0.403518
100
0.473854
0.312473
100
0.686623
0.329296
0.298495
3.51196
0.348032
0.341554
100
0.467814
100
4.3432
1.36178
0.597234
0.344763
8.24719
0.885404
0.930292
2.3754
100
2.94779
0.742164
1.38752
0.376603
100
0.58767
0.370894
0.644425
1.20525
2.63082
1.71096
0.52466
0.967062
0.569434
100
100
0.372778
0.633305
100
100
0.36903
0.66788
0.414924
10.6377
0.655943
0.552295
0.417283
1.75179
100
0.48966
0.638816
100
0.483213
100
1.03526
4.10056
2.10315
0.798694
0.854482
1.41426
0.699714
5.68992
0.390633
0.513646
0.573886
0.492948
0.874851
0.607113
0.864547
0.674013
1.98916
0.765381
0.781683
1.2677
100
0.408004
0.378546
2.72862
0.807481
1.14867
100
0.419668
0.528438
100
0.33078
0.358224
0.942234
0.720314
0.954486
18.8205
2.16519
100
100
1.33698
1.79462
1.06531
4.92617
4.61635
1.63474
1.44204
1.09716
1.11381
0.54817
12.4407
100
100
0.790097
0.583002
0.727453
0.517266
100
1.28998
0.622561
25.3103
0.592413
9.29114
100
0.386519
0.450583
0.384494
100
0.993234
100
2.53979
0.907293
2.231
0.556482
1.00686
100
0.713314
2.04457
0.918648
0.661858
100
6.73394
SCALARS cell_Gaussian_modifier float
LOOKUP_TABLE default
9.05315e+15
1.3446e+15
5.19656e+14
1.21295e+15
3.42781e+14
4.21751e+13
2.35656e+11
6.44017e+12
3.69759e+14
1.20918e+14
4.88456e+12
1.697e+12
9.16322e+09
8.93876e+10
1.16886e+13
1.01118e+14
4.11307e+12
3.33109e+10
4.57932e+09
7.69328e+07
8.27151e+09
7.35484e+10
1.01067e+12
1.95467e+11
6.30378e+09
3.85241e+08
5.64576e+07
1.12113e+08
2.80468e+09
8.66411e+09
1.80907e+11
1.59664e+09
1.85624e+08
1.37554e+07
1.12443e+06
1.11558e+09
4.12919e+09
8.16986e+16
2.35499e+16
3.48008e+15
3.1921e+13
5.42803e+12
1.90087e+12
5.39498e+10
1.06228e+10
8.82049e+07
3.6285e+06
5.45327e+08
3.13514e+09
4.83213e+11
1.43896e+12
4.74674e+12
2.55633e+15
2.24495e+16
1.36855e+17
100
1.26543e+15
4.66884e+11
19838.3
1.16283e+11
4.83032e+14
3.02828e+07
1.18742e+07
4.7472e+12
3.37411e+11
1.48164e+11
5.34055e+07
5.24901e+08
6.60882e+09
4.92882e+08
9.50868e+06
1.24839e+07
7.65983e+08
5.91416e+13
2.23802e+13
5.07947e+11
5.04231e+07
1.10547e+11
3.39416e+10
9.89524e+16
38230.5
1.25698e+16
7.5568e+08
4.9085e+07
754.644
1.83043e+16
1.89795e+13
4.20458e+15
5.90922e+08
2.20382e+10
1.58276e+16
100
1.59077e+14
2.10053e+11
1.20494e+14
1.25863e+10
1.52423e+09
2.30409e+12
1.97577e+13
4.2121e+10
6.31648e+10
5.98622e+09
7.88458e+06
1.37004e+07
287596
7.96587e+08
3.72475e+08
641336
3.34416e+06
2.68019e+08
301483
1.05737e+08
19449.2
1.01982e+07
2.09902e+08
1.29948e+06
7.66422e+07
7.11108e+06
3.45584e+06
114735
8680.79
1.03569e+07
3.55038e+07
124464
1.07534e+06
8350.46
43047.3
11761.6
1.07859e+06
798552
2.53727e+06
370357
6.41048
2.07188e+06
72645.9
874993
157083
361.557
278045
74.3908
1.13657e+06
814974
1.20715e+07
24123.8
1.20425
2.57517e+06
106689
54494.6
96.5396
1.04399e+06
4.79214e+06
3391.27
30086.3
63240.7
248706
17599.8
199451
268423
572.831
144.6
21.5586
33177.5
2352.91
12115.6
7531.34
1.03128
193.691
412864
3187.82
254.183
123098
63708.6
5879.59
2.17116
4.98848
409.969
26793.7
6127.16
13690.2
112015
10773
257.301
2338.28
403.479
5562.37
34846
337.047
46.7246
1.24883
1.06664
761.794
1301.11
1319.48
8.5212
1484.42
180.625
815.307
42.4836
9.39328
3375.2
90.7868
20.5598
1509.51
4065.7
2189.65
646.745
5331.97
182.71
668.035
31.8575
1370.91
156.542
2.79077
351.997
1.64872
6.56283
405.165
66.1864
472.947
1121.7
50.6146
3882.92
130.864
1367.35
1.36209
1.15238
421.273
195.857
1414.64
88.974
43.9324
72.2933
6.1572
3.5466
13.9718
16.3884
55.3881
1.06187
128.279
85.7752
1.04401
37.2652
4.74332
1.4356
1.00088
134.782
31.3764
14.3877
1.11835
182.728
2.87191
33.9856
1.03867
3.62798
1.01601
17.3817
5.51019
36.8115
7.98632
50.5723
3.14778
6.31369
1.02566
15.7989
1.11169
1.67769
10.8629
3.76799
1.02992
9.16407
1.07551
1.06961
12.1391
2.78605
45.765
1.30026
19.9287
31.4395
87.4075
1.17489
19.9574
1.8513
13.2618
173.348
3.4857
1.5664
17.665
2.50786
2.74874
20.6813
1.8913
11.6724
6.38887
2.31001
6.09754
13.6257
2.19801
2.21059
1.93083
3.89226
30.5834
5.9702
1.0006
16.6817
10.1989
23.875
1.15764
6.75052
1.44667
3.24121
1.00853
1.158
3.70052
3.01574
2.9891
1.15891
7.31455
1.56501
4.81733
6.74075
1.07077
1.09266
1.67845
1.20281
1.00122
4.07942
1.08028
1.00221
1.52133
1.00298
1.38809
1.00297
1.30895
1.45525
1.00134
3.00139
1.81579
3.57614
2.00981
1.00292
1.03967
1.03066
1.80865
1.33226
1.21876
2.20402
1.04784
1.4222
1.02505
1.47053
1.68009
1.05321
1.99257
1.32838
1.49186
1.00016
1.45041
1.02409
1.15091
1.26606
1.22395
1.09605
1.19384
1.32037
1.24394
1.03098
1.2727
