# vtk DataFile Version 3.0
2D-vertex
ASCII
DATASET UNSTRUCTURED_GRID

POINTS 576 float
0.150043 -2.83349 0
2.60536 -2.71825 0
3.03016 -1.78554 0
2.04633 -0.678871 0
-0.221536 -0.44836 0
-0.991903 -1.91018 0
3.56151 -1.77223 0
4.16787 -0.942395 0
3.30002 0.604993 0
2.23307 0.330472 0
1.10408 1.62313 0
-0.57808 2.16715 0
-1.3869 0.92198 0
-1.55346 0.886591 0
-2.12056 -0.754633 0
-1.63909 -1.65711 0
4.73746 -1.12431 0
5.58766 -0.279188 0
3.82046 1.32325 0
3.53471 1.2652 0
2.70226 2.25532 0
1.61732 2.21119 0
1.11275 5.78751 0
0.18669 5.78924 0
-0.662789 3.97317 0
-1.92947 3.13379 0
-1.90358 1.25013 0
-3.21146 0.995273 0
-3.74847 -0.0147858 0
-3.46648 -0.734235 0
6.65919 -0.313114 0
7.31294 0.38526 0
7.19096 1.70454 0
5.02426 2.9534 0
5.52131 3.51437 0
3.22196 4.91287 0
2.53062 6.18074 0
1.59548 6.37656 0
0.696284 9.41839 0
-0.959426 9.49565 0
-0.667216 6.6262 0
-2.26033 5.75189 0
-3.31638 4.27977 0
-4.30219 4.33745 0
-5.05538 2.97254 0
-6.47889 2.69354 0
-6.7852 1.64026 0
-5.2948 0.255666 0
7.6455 2.31438 0
7.34964 3.36279 0
6.62431 3.80738 0
5.99757 5.87401 0
3.67748 7.13628 0
3.6353 7.93592 0
2.20084 9.51036 0
2.75929 10.2091 0
-1.97386 10.8069 0
-1.9152 10.0402 0
-3.13148 8.81065 0
-2.83537 6.73696 0
-4.52108 7.10688 0
-5.89933 5.84182 0
-7.84781 4.4134 0
-7.71137 3.87462 0
8.30034 3.73847 0
8.30043 3.74096 0
6.93685 5.81894 0
7.4159 7.00889 0
6.24225 8.29398 0
6.48437 8.96325 0
5.81794 9.95072 0
5.63985 10.3295 0
-2.76352 13.0651 0
-2.96558 12.8451 0
-6.30989 10.2833 0
-5.62274 9.42929 0
-6.33319 8.15082 0
-6.23559 7.95015 0
-8.83399 4.94045 0
-8.68442 4.57951 0
9.85053 3.97581 0
10.2152 4.9204 0
9.47181 5.94536 0
10.6605 6.31217 0
10.4542 7.85023 0
10.694 8.58013 0
10.1374 13.3512 0
11.0882 15.6251 0
-9.98061 15.6919 0
-9.9456 15.5465 0
-10.2926 9.57632 0
-9.9803 9.02017 0
-10.3136 8.40543 0
-9.56116 7.28586 0
-10.3495 6.04223 0
-9.89154 5.05491 0
3.46831 -4.60258 0
4.68571 -4.09004 0
5.53056 -3.71093 0
7.9295 -2.18995 0
9.26774 -0.795389 0
10.6777 1.48935 0
10.7728 1.64828 0
11.5163 2.69404 0
12.3818 4.59143 0
12.6251 5.36617 0
12.9684 8.88985 0
13.5605 16.0674 0
-13.2912 16.251 0
-12.839 9.53687 0
-12.7492 8.24051 0
-12.3646 5.69067 0
-11.4924 3.75005 0
-10.6377 2.64992 0
-10.0371 1.92548 0
-9.14196 0.600076 0
-7.23633 -1.55034 0
-5.18737 -2.97304 0
-3.11237 -3.99793 0
-0.133182 -4.87571 0
12.8784 10.5873 0
9.01645 10.7008 0
-13.1109 12.1754 0
-10.3549 12.8692 0
-0.429448 3.64627 0
0.90281 3.71585 0
-1.93706 5.70308 0
-1.24816 3.97828 0
4.51878 5.07443 0
4.94981 5.98591 0
0.39069 10.9171 0
0.16959 9.93209 0
-1.19482 7.93083 0
-2.44218 7.6561 0
5.99677 5.87637 0
5.25783 7.83332 0
4.2911 8.35867 0
4.31462 9.60612 0
2.33324 11.1083 0
2.33113 11.107 0
-2.61456 11.1301 0
-4.14775 9.57902 0
-3.70308 8.84758 0
-4.63629 7.68474 0
1.20331 0.98951 0
-0.275184 0.0271251 0
6.37313 1.97486 0
5.23312 0.461415 0
5.02227 2.9549 0
3.01699 3.81167 0
-9.19897 11.1517 0
-6.11922 10.9215 0
3.01449 3.81168 0
1.57563 4.52699 0
-9.55018 7.22516 0
-8.12835 6.60073 0
-1.02412 -1.92568 0
-1.49907 -4.60446 0
7.26966 33.4591 0
8.43534 35.1115 0
0.969947 -2.51076 0
1.11627 -1.06127 0
2.58092 8.35629 0
1.37372 7.32777 0
8.82677 10.2101 0
5.81871 9.95312 0
9.5704 21.4444 0
0.273053 12.6596 0
-2.9142 -1.00069 0
-3.67262 -3.74888 0
-4.49998 2.0399 0
-5.408 0.879207 0
-5.82171 -2.58664 0
-4.71266 -0.147977 0
0.403919 7.84254 0
-0.567552 7.4094 0
9.43194 5.79195 0
7.79569 5.05785 0
5.38582 -0.804684 0
7.04283 -2.85254 0
1.41578 -4.98329 0
1.50341 -2.95697 0
-6.36026 1.01435 0
-7.97898 -0.850315 0
-5.52011 4.74244 0
-6.84605 3.53477 0
7.46461 1.82943 0
9.86838 0.0638431 0
-12.616 7.0669 0
-9.57267 7.26676 0
13.0065 7.3963 0
10.9136 7.32175 0
-2.91227 3.34108 0
-3.83856 2.0165 0
-9.61947 1.35332 0
-6.83991 2.9721 0
-3.68985 6.56104 0
-4.46719 4.64222 0
-6.96985 6.77095 0
-6.54963 5.94618 0
8.42994 7.14727 0
8.67354 7.65886 0
-0.83361 12.5343 0
-0.695678 11.655 0
12.8825 10.5965 0
10.3865 11.9058 0
10.2988 14.332 0
2.13981 11.4835 0
8.13777 8.87061 0
9.46506 9.61671 0
-7.50758 8.27329 0
-7.85265 9.0622 0
-2.32449 14.7479 0
0.961241 13.8706 0
-10.2587 13.4135 0
-4.29303 12.7721 0
9.46405 9.61901 0
12.885 9.99592 0
-10.9887 14.7138 0
-13.3915 15.2109 0
-12.8906 10.5732 0
-9.44237 10.7533 0
13.0017 18.868 0
10.5203 17.3279 0
8.69027 11.1511 0
6.5837 11.3214 0
-9.44228 10.7508 0
-7.53422 9.98137 0
2.58648 14.3985 0
4.39269 12.8858 0
-4.64442 11.3275 0
-3.82123 10.5576 0
5.1798 12.6624 0
4.24947 11.1629 0
13.264 12.3427 0
10.6217 12.504 0
-2.96759 14.3708 0
-4.8228 13.7375 0
-8.89837 29.9756 0
0.123972 15.3168 0
-6.7587 11.5496 0
-4.72796 13.0888 0
-12.9645 11.3121 0
-9.69136 11.824 0
6.56696 16.6095 0
8.56638 15.0625 0
-0.990195 14.1285 0
-0.620425 12.7532 0
-10.6318 19.1419 0
-13.3856 18.9119 0
5.15595 34.3723 0
2.52417 15.3591 0
-3.19313 16.7742 0
-10.4569 19.5615 0
-10.9716 13.9266 0
-13.3189 13.2878 0
-6.90143 15.279 0
-6.40034 14.0725 0
-6.63295 12.1732 0
-7.52489 13.2042 0
13.5172 14.2147 0
11.0409 14.883 0
-10.9369 21.0735 0
-13.3168 22.0406 0
6.35503 12.3557 0
5.18143 12.6605 0
10.4623 16.2571 0
8.61852 15.7864 0
4.21566 13.8811 0
7.03214 16.202 0
-2.11287 15.912 0
-0.40234 16.2216 0
13.405 23.8594 0
10.9859 23.7317 0
0.456341 15.253 0
1.51997 16.0253 0
10.8281 25.8806 0
4.3401 16.0126 0
13.3786 13.2732 0
10.452 13.757 0
-8.71532 14.9294 0
-8.80781 14.0375 0
-9.59081 12.1278 0
-7.54398 12.8489 0
-10.2541 18.5937 0
-6.54833 16.8373 0
3.54564 35.4714 0
3.62248 37.3291 0
1.94807 13.7412 0
2.70048 12.2755 0
-4.07901 15.9832 0
-4.0954 15.056 0
-13.3187 17.8376 0
-10.563 17.9901 0
0.0426103 17.5456 0
-0.192631 17.4091 0
8.06754 13.3978 0
7.65168 14.2235 0
8.95618 11.7232 0
7.90722 13.0497 0
-11.1127 20.3195 0
-13.455 20.0948 0
-2.64077 16.7151 0
-1.65424 17.9842 0
1.78141 16.9847 0
3.72468 17.0205 0
6.63989 14.3399 0
6.41962 14.7781 0
-7.74635 18.3999 0
-7.52277 18.691 0
-9.51524 16.2379 0
-6.784 16.2131 0
4.2999 15.9189 0
4.9895 14.8258 0
-10.1449 22.9171 0
-3.89341 18.1765 0
13.3683 25.3639 0
11.4339 25.1623 0
-11.3941 30.7502 0
-9.89111 29.6215 0
9.06135 17.7362 0
8.03914 16.4129 0
12.8825 20.3471 0
9.94548 20.6205 0
4.57792 18.2759 0
6.46909 19.2104 0
1.58334 19.2446 0
3.90737 18.6766 0
-0.378522 25.2395 0
-2.82766 24.0079 0
-2.73645 22.2372 0
-4.44971 20.0122 0
-6.54415 15.8229 0
-4.28924 14.9687 0
-9.60761 21.4215 0
-8.34447 19.925 0
7.10108 24.2776 0
7.64181 21.2094 0
-13.2738 16.8236 0
-9.88181 16.9149 0
-9.86253 16.9521 0
-7.61935 17.6542 0
0.0570365 19.4207 0
0.287844 19.132 0
7.6322 32.7075 0
2.35967 22.4268 0
10.9549 32.8777 0
9.74863 31.7815 0
-13.3411 25.0974 0
-11.1513 24.5785 0
-5.6249 17.0828 0
-5.34678 18.0178 0
8.63773 18.3426 0
7.44063 18.1283 0
1.67925 17.1374 0
2.23166 18.2103 0
10.7374 16.8333 0
13.4394 17.0994 0
12.8468 19.3922 0
9.05345 18.0139 0
-10.3968 25.2037 0
-4.40896 20.1711 0
-2.00046 18.864 0
-3.53001 18.891 0
3.77123 22.9606 0
4.51838 22.3893 0
-5.96841 18.7603 0
-5.68899 19.6681 0
4.60335 17.9505 0
6.57862 17.1095 0
-1.53189 21.9272 0
0.0404126 23.2576 0
2.20261 29.0513 0
6.7719 31.3257 0
-4.59431 34.626 0
-5.25987 35.7772 0
0.00706598 35.1201 0
-1.75712 24.9485 0
-13.405 23.134 0
-11.1352 23.6365 0
-1.63097 19.3847 0
-3.36158 20.6218 0
-7.18133 21.7354 0
-5.63005 21.5844 0
9.45572 29.4648 0
7.41224 30.3011 0
5.41139 20.9874 0
7.00305 21.7041 0
10.8751 23.8713 0
8.35564 23.4947 0
13.1603 22.0148 0
10.818 22.9173 0
-10.0608 28.4589 0
-3.38863 21.7902 0
12.1177 30.8007 0
10.3642 30.4009 0
2.68239 20.3857 0
3.97083 19.6757 0
-12.9427 27.4318 0
-10.876 27.201 0
-0.838395 26.7973 0
3.95232 24.14 0
0.539532 20.6581 0
2.15693 21.1344 0
-8.31453 20.0174 0
-6.91954 20.5841 0
9.16743 19.5386 0
7.54018 20.0329 0
-1.15838 21.1202 0
-1.93218 20.1108 0
12.8381 19.4771 0
9.16895 19.5366 0
-1.93092 24.3686 0
-0.840498 23.1217 0
-5.39901 22.1103 0
-4.35703 22.405 0
-3.60115 24.4265 0
-4.32416 23.9258 0
-13.3169 22.0507 0
-10.1991 22.6078 0
5.05415 24.5564 0
6.00811 23.8035 0
0.37796 29.9631 0
1.53535 35.0845 0
-7.67743 22.9028 0
-7.02607 23.8005 0
0.546911 35.5232 0
0.367619 37.3731 0
-6.00517 29.2409 0
-4.59202 29.827 0
9.80428 22.272 0
8.37624 22.9193 0
13.2011 26.8623 0
11.0595 26.537 0
5.91432 23.0003 0
7.04973 22.1933 0
2.67664 20.7795 0
4.44488 21.6693 0
3.24685 24.7178 0
3.44278 28.5819 0
5.35531 20.3619 0
6.51301 19.5246 0
1.8629 22.8639 0
2.16216 24.3246 0
12.989 21.1801 0
9.90078 21.8283 0
-2.37958 32.6981 0
-1.84754 30.6503 0
-7.95142 31.2597 0
-8.94899 33.2764 0
0.138384 21.1566 0
0.662542 22.5488 0
-6.40699 23.7551 0
-5.77508 24.4859 0
-9.45283 21.8613 0
-7.18167 21.733 0
6.61421 26.705 0
8.65073 25.7202 0
-12.2509 29.379 0
-10.5187 28.2865 0
-5.91824 25.1828 0
-5.04545 25.9926 0
2.96395 31.078 0
5.75528 31.3361 0
-6.3882 31.824 0
-5.66702 29.771 0
6.24019 27.4151 0
4.55625 27.6013 0
2.88264 28.4205 0
1.81264 26.4431 0
-3.84353 25.7053 0
-3.3001 26.3539 0
4.86629 35.107 0
5.75887 36.7159 0
0.406955 24.4236 0
1.61394 24.7938 0
-8.10353 25.1928 0
-7.97546 25.8123 0
2.62889 32.891 0
1.72716 33.256 0
-2.63424 26.2886 0
-2.21078 26.864 0
8.85759 31.8671 0
8.15674 30.3946 0
-2.79828 35.2233 0
-3.29208 36.6575 0
-3.36796 34.5519 0
-2.85822 32.8328 0
9.18423 25.3271 0
9.22811 24.0997 0
-7.57395 28.4415 0
-7.3351 26.0304 0
9.51608 29.0748 0
8.59507 27.1647 0
-0.306883 33.1323 0
0.550497 30.9076 0
-9.18869 23.4075 0
-9.22693 24.6968 0
9.67307 34.1506 0
8.47871 32.6434 0
12.9777 28.1685 0
10.7465 27.8946 0
6.4014 33.5337 0
5.37894 32.0775 0
-0.836155 29.6144 0
-0.272822 28.0321 0
-5.71665 33.2556 0
-6.93728 34.6572 0
3.47104 26.1195 0
2.59454 26.8039 0
5.03351 30.0058 0
5.12678 27.8641 0
5.27445 25.7132 0
4.39098 26.4727 0
-3.68173 28.7124 0
-3.02256 28.8716 0
7.2246 25.1693 0
6.34488 26.0074 0
3.9875 29.9533 0
3.5296 30.9269 0
-7.60179 31.1592 0
-6.95319 29.319 0
6.06809 34.2612 0
7.17239 35.9471 0
-5.26036 27.8196 0
-4.07307 27.8256 0
-5.05238 33.4551 0
-3.58533 32.3162 0
2.35398 30.626 0
1.28381 31.2515 0
-10.4455 31.9451 0
-8.81975 30.6366 0
-7.77226 34.0638 0
-6.80794 31.957 0
0.173194 33.4526 0
1.25713 32.9257 0
[...]
CELL_DATA 864
SCALARS current_Length float
LOOKUP_TABLE default
0.881133
1.02489
1.48076
1.47152
1.65239
1.46851
0.531515
1.02777
1.77414
1.10169
1.02647
1.2226
1.76794
1.4848
0.478502
0.170281
1.73644
1.02287
0.035745
0.597932
0.562925
0.82109
0.291592
0.700684
1.29356
1.08583
0.780537
1.05386
0.926065
2.00493
0.401633
0.585393
1.88384
0.504719
1.33248
1.14394
0.772739
0.830907
1.07207
0.956612
1.32491
0.861344
2.02646
0.00249741
1.30684
1.58738
1.4441
0.955424
0.761579
0.976718
0.735726
0.78951
1.19568
1.56992
1.81173
1.00442
0.987492
1.55894
1.1984
1.45059
1.09691
0.633733
0.708392
0.517587
1.08936
0.850741
1.14125
2.15958
1.71527
1.49277
0.800749
1.13509
1.50736
0.89449
0.994768
0.768887
1.10004
1.72953
0.999709
1.14063
0.872402
1.87081
0.346572
0.658617
0.555786
0.562698
1.02223
0.00249995
1.41031
0.00248972
1.28276
1.74038
0.780253
0.711715
1.19132
1.66812
0.00251766
1.62104
0.298692
0.717601
1.32946
1.09616
0.572794
1.46261
0.223145
0.58924
1.38912
0.390696
0.852952
1.56778
1.01253
1.17177
1.02344
1.24399
1.04084
1.65599
0.768252
0.869184
1.36921
0.51348
0.871461
0.149482
1.18763
0.878313
0.637848
2.12807
0.699282
1.34893
2.27864
0.0223081
1.08835
1.06373
2.07254
1.32089
2.57606
0.92601
2.70547
1.1069
2.26632
2.28368
1.63925
3.14247
0.1852
3.2376
1.2831
2.10183
2.19149
0.812028
2.18049
2.06566
2.29543
0.591396
2.51152
3.35745
1.13163
2.54672
1.29947
2.4412
1.18115
2.04552
2.06532
1.39314
2.74567
0.94103
3.0345
0.708378
2.5761
2.65164
1.75359
2.82378
0.613111
2.76587
1.39256
2.06177
1.55269
1.93279
2.08549
1.07637
2.12758
1.02056
0.0100655
0.556041
3.86361
0.875641
1.0646
2.842
1.48657
1.6657
1.33407
0.326941
1.08506
1.85729
1.85441
1.05372
1.00826
1.31324
1.21044
1.00956
1.58242
1.34466
1.27726
0.941827
1.08688
2.09181
1.10025
1.54231
1.24768
0.422083
1.9497
0.00250254
1.75059
1.48257
1.33561
0.856003
1.62117
1.49099
0.64134
1.42712
1.76412
1.66643
1.6548
1.89476
0.749703
1.12012
2.18063
0.466829
0.666002
2.47251
0.00249894
1.34282
1.60686
1.42765
1.80401
1.5529
0.671059
1.72355
2.72056
0.889581
1.82192
2.02219
0.695471
1.0056
1.45686
1.21505
1.09795
1.58594
0.52609
0.416701
3.01901
0.506479
0.898363
1.94285
0.613197
1.70188
2.85093
1.08549
0.961805
1.47367
0.742759
0.973344
2.67901
1.60274
0.815694
1.06366
0.158507
1.14755
1.79339
0.722864
1.73891
2.63427
2.08754
1.12751
2.02821
0.756532
1.85908
2.46926
1.16294
0.929661
1.79349
0.300805
1.04836
2.98251
1.399
0.0472906
3.04988
1.49404
0.700244
2.09422
1.02198
0.661841
1.61632
0.891847
0.455996
3.21658
0.994426
1.05768
2.0703
1.17095
2.00866
0.925646
1.59062
1.79096
0.566631
2.00157
1.53395
0.890055
1.78739
0.642801
2.81863
0.9243
2.20636
1.88015
1.3249
1.6077
1.52262
1.18076
1.26102
0.861068
1.32158
1.3929
0.338436
0.552805
1.48666
0.655593
0.00251357
1.10921
3.4416
1.33475
1.04493
2.45367
1.03764
0.00252039
3.45288
0.546622
1.51501
2.92045
0.630863
1.05927
2.11344
1.45001
0.97276
2.05736
0.916286
1.79892
1.70935
1.52967
1.03158
1.12716
0.818193
1.917
1.76391
0.937562
0.975892
2.64726
0.74551
1.61272
1.31961
0.665784
1.62894
1.20593
0.896384
0.538032
0.636176
0.74257
0.833375
3.31289
2.30547
2.22394
0.725792
1.47106
0.305543
1.42416
0.454528
1.18495
2.76335
1.06875
0.962657
1.68678
0.555512
1.00238
1.48253
0.787328
1.92447
2.43271
1.84728
1.52981
1.30646
2.11358
1.42076
0.355791
1.85322
0.743595
2.56492
1.054
2.003
2.56888
1.70028
0.00251152
1.21255
0.540148
0.618419
1.90289
1.01089
0.853348
1.43091
1.18315
1.04671
1.73832
1.50497
0.178258
2.42248
1.4717
1.20511
1.31446
0.695955
0.101995
1.73454
0.951618
0.595091
2.96632
1.37641
1.57939
0.896648
0.319976
1.13423
2.17012
0.678068
0.667211
2.51523
1.37001
2.22263
1.8592
0.995278
0.970375
1.64754
0.955494
0.212573
0.927331
1.01502
1.25221
2.7599
1.3082
1.24383
0.271947
2.07034
1.2412
0.924556
1.44189
0.383225
1.69115
0.774232
1.95073
2.353
0.96109
1.57069
1.60745
0.994358
1.18093
1.94359
1.01847
1.55008
0.490385
0.756445
1.56749
0.367034
0.717475
0.457988
2.73136
1.86186
1.22113
1.29245
0.314059
1.5559
0.801582
1.50764
0.939678
1.94496
1.6169
1.17492
1.87958
0.277791
1.02886
1.6721
0.839756
0.905248
2.9497
0.326397
1.33454
2.10947
1.30038
0.78116
1.22064
1.84376
0.87947
1.40898
1.77301
1.07463
1.14021
0.650784
1.34187
2.41129
1.37405
2.1435
1.90879
1.19139
1.14604
1.51221
0.572881
0.769835
3.39323
0.0419221
1.347
2.35049
0.945441
1.60529
0.369626
0.834467
1.1326
1.62766
1.8065
0.895142
1.62993
1.96443
0.942144
2.25047
1.89709
1.46201
0.975537
1.30692
1.45426
1.21612
0.183694
1.73937
1.20683
0.63851
1.03913
2.71506
0.0852797
0.529969
4.03603
0.979775
0.164083
1.27498
0.638452
1.45015
1.52978
1.50913
0.723746
0.940513
0.968378
1.28616
0.949808
1.27946
0.500157
2.14684
1.29727
0.94307
0.89133
1.2632
0.802564
0.582925
0.673755
2.15573
1.3298
0.880527
0.605363
1.67573
1.0869
1.22399
2.32475
1.68839
0.790686
0.7861
0.00250956
1.86769
1.55862
1.30449
1.2083
1.59749
0.627992
0.80795
1.74557
1.40678
1.47881
1.66272
1.86074
0.831524
2.5101
0.489314
1.16874
1.52113
2.3803
1.51169
1.79851
1.58434
1.00111
1.47112
1.2307
1.09473
2.07959
1.05775
1.19324
1.66122
1.32815
0.62933
1.68606
0.0971347
1.53406
1.50574
1.33257
1.18085
1.70066
0.889247
1.51799
1.27187
0.871204
0.00250185
3.66964
0.966574
1.38019
1.65646
0.574398
1.14709
1.08287
0.951231
1.04982
0.879432
0.0100451
1.05557
3.1672
1.17787
0.808641
1.21527
0.792144
0.676692
0.809956
1.26843
0.62074
1.10911
1.08141
1.62149
1.85858
1.60465
1.43908
1.07647
1.20167
0.575714
1.56791
1.32523
0.987355
2.16612
1.52377
0.491431
1.39299
0.393775
1.18287
1.97954
0.911901
1.01668
1.41946
1.54521
0.317268
1.42874
0.661691
1.15377
1.49108
0.852135
0.454111
3.15549
0.497238
0.838782
1.57565
1.0348
1.02434
2.24996
0.639864
1.24101
1.48761
1.92916
1.55528
0.966104
0.466248
1.17833
2.27479
1.17763
0.900225
1.24538
2.06641
1.14276
2.04786
0.71142
1.23578
1.19061
1.58192
1.51349
0.831438
0.440283
0.62875
2.17605
0.877502
1.48368
1.20055
0.92754
1.45363
0.86112
1.30163
0.669049
0.846133
0.789716
1.60909
1.83994
1.22223
0.721591
1.2625
1.76052
1.65105
0.632561
1.48966
1.83858
0.972781
1.60165
1.37401
0.714412
0.863783
0.75036
1.63082
1.17306
1.78187
1.51685
1.22858
0.891912
1.79311
0.662708
1.0617
1.22816
0.215519
0.67649
1.33088
0.394602
2.03351
1.1317
1.23685
0.96015
1.48729
1.59329
1.22803
1.28988
1.56692
0.848932
1.92306
1.92573
0.963917
2.24794
0.918879
0.585492
1.77929
1.44773
1.35812
0.734282
1.25725
2.01699
1.85859
0.985417
1.64211
1.11205
1.47564
0.628139
1.60173
1.11013
1.14067
1.16506
0.969364
0.771613
0.678118
1.52883
0.747751
1.21504
1.04732
0.815483
1.07585
0.363759
1.07488
1.95119
0.800223
1.51436
2.01537
1.42317
1.66233
1.1873
0.693592
1.01561
1.85725
0.759196
0.574506
1.23959
1.52562
0.665595
2.08695
1.41588
1.12542
2.31704
0.577097
1.67435
1.20523
1.52972
1.34462
0.860172
0.925956
1.6244
1.12617
1.094
1.30791
1.37176
0.599442
1.31802
1.34347
0.599119
1.60248
1.33408
0.776907
0.438164
1.73991
1.95443
0.875051
1.63576
1.7644
1.21471
1.2957
0.651063
0.337022
1.63835
0.556554
1.10632
1.49486
0.65159
0.887427
1.60646
1.87758
1.60717
1.27041
0.69749
1.19228
1.28845
1.53409
1.15257
1.49393
1.13753
0.645119
2.60184
0.848059
0.711532
1.56322
1.03151
1.63724
1.96493
0.84454
0.921244
2.36114
0.692855
1.31672
1.95839
3.29267
3.27162
3.28079

SCALARS edge_force float
LOOKUP_TABLE default
0.5
0.5
0.5
0.5
0.5
0.5
0.5
0.5
0.5
0.5
0.5
0.5
0.5
0.5
0.5
0.5
0.5
0.5
0.5
0.5
0.5
0.5
0.5
0.5
0.5
0.5
0.5
0.5
0.5
0.5
0.5
0.5
0.5
0.5
0.5
0.5
0.5
0.5
0.5
0.5
0.5
0.5
0.5
0.5
0.5
0.5
0.5
0.5
0.5
0.5
0.5
0.5
0.5
0.5
0.5
0.5
0.5
0.5
0.5
0.5
0.5
0.5
0.5
0.5
0.5
0.5
0.5
0.5
0.5
0.5
0.5
0.5
0.5
0.5
0.5
0.5
0.5
0.5
0.5
0.5
0.5
0.5
0.5
0.5
0.5
0.5
0.5
0.5
0.5
0.5
0.5
0.5
0.5
0.5
0.5
0.5
0.5
0.5
0.5
0.5
0.5
0.5
0.5
0.5
0.5
0.5
0.5
0.5
0.5
0.5
0.5
0.5
0.5
0.5
0.5
0.5
0.5
0.5
0.5
0.5
0.5
0.5
0.5
0.5
0.5
0.5
0.5
0.5
0.5
0.5
0.5
0.5
0.5
2
0.5
2
0.5
2
0.5
0.5
2
0.5
2
0.5
2
0.5
0.5
2
0.5
2
0.5
2
0.5
0.5
2
0.5
2
0.5
2
0.5
0.5
2
0.5
2
0.5
2
0.5
0.5
2
0.5
2
0.5
2
0.5
2
2
2
2
2
2
2
0.5
0.5
2
0.5
0.5
0.5
0.5
0.5
0.5
0.5
0.5
0.5
0.5
0.5
0.5
0.5
0.5
0.5
0.5
0.5
0.5
0.5
0.5
0.5
0.5
0.5
0.5
0.5
0.5
0.5
0.5
0.5
0.5
0.5
0.5
0.5
0.5
0.5
0.5
0.5
0.5
0.5
0.5
0.5
0.5
0.5
0.5
0.5
0.5
0.5
0.5
0.5
0.5
0.5
2
0.5
0.5
2
0.5
0.5
0.5
0.5
0.5
0.5
0.5
0.5
0.5
0.5
0.5
0.5
0.5
0.5
2
0.5
0.5
0.5
0.5
2
0.5
0.5
0.5
0.5
0.5
0.5
0.5
0.5
0.5
2
0.5
2
0.5
0.5
0.5
2
0.5
0.5
0.5
0.5
0.5
2
0.5
2
0.5
0.5
2
0.5
0.5
0.5
0.5
0.5
2
0.5
0.5
0.5
0.5
0.5
0.5
0.5
0.5
0.5
0.5
0.5
0.5
0.5
0.5
2
0.5
0.5
0.5
0.5
0.5
0.5
0.5
0.5
0.5
0.5
0.5
0.5
0.5
0.5
0.5
0.5
0.5
0.5
2
0.5
0.5
2
0.5
2
0.5
0.5
2
0.5
0.5
0.5
0.5
0.5
0.5
0.5
0.5
0.5
0.5
0.5
0.5
0.5
0.5
0.5
0.5
0.5
2
0.5
0.5
0.5
0.5
0.5
0.5
0.5
0.5
0.5
0.5
0.5
2
0.5
0.5
0.5
0.5
0.5
0.5
0.5
0.5
0.5
2
0.5
0.5
0.5
0.5
0.5
0.5
0.5
0.5
2
0.5
0.5
0.5
0.5
0.5
0.5
0.5
2
0.5
0.5
0.5
2
0.5
0.5
0.5
0.5
0.5
0.5
0.5
0.5
0.5
0.5
0.5
0.5
0.5
2
0.5
0.5
0.5
0.5
0.5
0.5
0.5
0.5
2
0.5
0.5
0.5
0.5
0.5
0.5
0.5
0.5
0.5
0.5
0.5
0.5
2
0.5
0.5
0.5
0.5
0.5
0.5
0.5
2
0.5
0.5
0.5
0.5
0.5
0.5
0.5
0.5
0.5
0.5
0.5
0.5
2
0.5
0.5
0.5
0.5
0.5
0.5
0.5
0.5
0.5
0.5
0.5
0.5
0.5
0.5
0.5
0.5
0.5
0.5
0.5
0.5
0.5
0.5
2
0.5
0.5
2
0.5
0.5
0.5
0.5
0.5
2
0.5
0.5
0.5
0.5
0.5
0.5
0.5
0.5
0.5
0.5
0.5
0.5
0.5
0.5
0.5
0.5
0.5
0.5
0.5
0.5
0.5
0.5
0.5
2
0.5
0.5
0.5
0.5
0.5
0.5
0.5
0.5
0.5
0.5
0.5
2
0.5
0.5
2
0.5
0.5
0.5
0.5
0.5
0.5
0.5
0.5
0.5
0.5
0.5
0.5
2
0.5
2
0.5
0.5
0.5
0.5
0.5
0.5
0.5
0.5
0.5
0.5
0.5
0.5
0.5
0.5
0.5
0.5
0.5
0.5
0.5
0.5
0.5
0.5
0.5
0.5
2
0.5
0.5
0.5
0.5
2
0.5
0.5
0.5
0.5
0.5
0.5
0.5
0.5
0.5
0.5
0.5
0.5
0.5
0.5
0.5
0.5
0.5
2
0.5
0.5
0.5
0.5
0.5
2
0.5
0.5
0.5
0.5
0.5
2
0.5
0.5
0.5
0.5
0.5
0.5
0.5
0.5
0.5
0.5
0.5
0.5
0.5
0.5
0.5
0.5
0.5
2
0.5
0.5
0.5
0.5
0.5
0.5
0.5
0.5
0.5
0.5
0.5
2
0.5
0.5
0.5
0.5
0.5
0.5
0.5
0.5
0.5
0.5
0.5
0.5
2
0.5
0.5
0.5
0.5
0.5
0.5
0.5
2
0.5
0.5
0.5
0.5
0.5
0.5
0.5
0.5
0.5
0.5
0.5
0.5
0.5
0.5
0.5
0.5
0.5
2
0.5
0.5
0.5
0.5
0.5
0.5
2
0.5
0.5
0.5
0.5
0.5
0.5
0.5
0.5
0.5
0.5
0.5
0.5
0.5
2
0.5
0.5
0.5
0.5
0.5
0.5
0.5
0.5
0.5
0.5
0.5
0.5
0.5
0.5
0.5
0.5
0.5
0.5
0.5
0.5
0.5
2
0.5
0.5
0.5
0.5
0.5
0.5
0.5
0.5
0.5
0.5
0.5
0.5
0.5
0.5
0.5
0.5
0.5
2
0.5
0.5
0.5
0.5
0.5
0.5
0.5
0.5
0.5
0.5
0.5
0.5
0.5
0.5
0.5
0.5
0.5
0.5
0.5
2
0.5
0.5
2
0.5
0.5
0.5
0.5
0.5
0.5
0.5
0.5
0.5
2
0.5
0.5
0.5
0.5
0.5
0.5
0.5
0.5
0.5
0.5
0.5
0.5
0.5
0.5
0.5
0.5
0.5
0.5
0.5
0.5
0.5
0.5
0.5
2
0.5
0.5
0.5
0.5
0.5
0.5
0.5
0.5
0.5
0.5
2
0.5
0.5
2
0.5
0.5
0.5
0.5
0.5
0.5
0.5
0.5
0.5
0.5
0.5
0.5
0.5
0.5
0.5
0.5
0.5
0.5
0.5
0.5
0.5
0.5
0.5
2
0.5
0.5
0.5
0.5
0.5
0.5
0.5
0.5
0.5
0.5
0.5
0.5
0.5
0.5
0.5
0.5
0.5
0.5
0.5
0.5
0.5
0.5
0.5
2
0.5
0.5
0.5
0.5
0.5
0.5
2
0.5
2
0.5
0.5
0.5
0.5
0.5
0
0
0
