# vtk DataFile Version 3.0
2D-vertex
ASCII
DATASET UNSTRUCTURED_GRID

POINTS 950 float
0.586266 -4.00108 0
3.0353 -3.7868 0
3.42155 -2.83685 0
2.39272 -1.77145 0
0.125171 -1.63123 0
-0.589615 -3.12232 0
3.94986 -2.80137 0
4.52103 -1.94511 0
3.58412 -0.432557 0
2.53863 -0.749714 0
1.36146 0.50671 0
-0.327568 0.978339 0
-1.0886 -0.29911 0
-1.24428 -0.33802 0
-1.7578 -2.00907 0
-1.24592 -2.89217 0
5.09249 -2.10027 0
5.90154 -1.21658 0
4.0613 0.314434 0
3.79184 0.246871 0
2.91175 1.20352 0
1.84707 1.11325 0
1.18395 4.74029 0
0.33147 4.71324 0
-0.485035 2.83227 0
-1.69177 1.91506 0
-1.60229 0.00965029 0
-2.8932 -0.284961 0
-3.40317 -1.31994 0
-3.09962 -2.02972 0
6.96953 -1.20061 0
7.58837 -0.473525 0
7.40554 0.838156 0
5.18475 2.00093 0
5.65052 2.58263 0
3.2998 3.90975 0
2.53047 5.19584 0
1.64594 5.35019 0
0.714838 8.53775 0
-0.870957 8.57588 0
-0.54433 5.52113 0
-2.04073 4.57326 0
-3.08833 3.02026 0
-4.04465 3.05078 0
-4.7785 1.63606 0
-6.18722 1.3229 0
-6.47038 0.257032 0
-4.9511 -1.09154 0
7.82463 1.46786 0
7.4763 2.50661 0
6.72165 2.92375 0
5.97153 4.9842 0
3.61861 6.16731 0
3.54333 7.04199 0
2.09061 8.66022 0
2.62386 9.36788 0
-1.84117 9.95029 0
-1.74008 9.0317 0
-2.97863 7.68457 0
-2.64296 5.53303 0
-4.27529 5.83332 0
-5.65524 4.50876 0
-7.569 3.00864 0
-7.42395 2.47549 0
8.38903 2.92298 0
8.38898 2.92548 0
6.88507 4.9681 0
7.31032 6.173 0
6.02916 7.4409 0
6.23401 8.12543 0
5.43037 9.14225 0
5.15255 9.65868 0
-2.56356 12.2507 0
-2.82415 11.9057 0
-5.99297 8.96573 0
-5.32132 8.18582 0
-6.04063 6.80379 0
-5.95796 6.64209 0
-8.5556 3.51281 0
-8.40377 3.16038 0
9.91787 3.24635 0
10.2254 4.20453 0
9.41249 5.1802 0
10.5745 5.61714 0
10.2512 7.13924 0
10.4309 7.85097 0
9.57271 12.4808 0
10.5608 14.5666 0
-9.57002 13.9688 0
-9.56975 13.9663 0
-9.96848 8.09782 0
-9.67461 7.58074 0
-10.0152 6.94368 0
-9.26987 5.8537 0
-10.0793 4.59299 0
-9.61372 3.6142 0
3.97398 -5.63228 0
5.17146 -5.06679 0
6.00257 -4.64852 0
8.32939 -3.01644 0
9.59791 -1.55869 0
10.8898 0.801377 0
10.9806 0.974389 0
11.6617 2.06042 0
12.4105 4.00416 0
12.6052 4.79548 0
12.7118 8.32125 0
13.1521 15.0234 0
-13.1675 14.4066 0
-12.5683 8.04623 0
-12.4785 6.7686 0
-12.0918 4.2265 0
-11.2045 2.29209 0
-10.3345 1.19934 0
-9.72219 0.482552 0
-8.80023 -0.832621 0
-6.84266 -2.94488 0
-4.7484 -4.31658 0
-2.63263 -5.27974 0
0.382149 -6.05015 0
12.5449 9.80115 0
8.44989 9.9406 0
-12.8493 10.5063 0
-9.94606 11.3529 0
-0.229943 2.49558 0
1.06224 2.6082 0
-1.78831 4.5443 0
-1.01688 2.81897 0
4.55371 4.12483 0
4.94608 5.05159 0
0.400665 10.1449 0
0.186205 9.02777 0
-1.06524 6.87031 0
-2.24651 6.56512 0
5.97053 4.98648 0
5.10889 6.95469 0
4.12691 7.44556 0
4.12147 8.81305 0
2.08996 10.3941 0
2.08798 10.3926 0
-2.32575 10.1671 0
-3.88789 8.37893 0
-3.44047 7.69525 0
-4.4039 6.41823 0
1.4888 -0.135554 0
0.0524331 -1.15014 0
6.57888 1.07211 0
5.50851 -0.481933 0
5.18271 2.00238 0
3.15119 2.78879 0
-8.83877 9.74242 0
-5.81098 9.66295 0
3.14869 2.78883 0
1.71119 3.44863 0
-9.28385 5.79289 0
-7.87078 5.1933 0
-0.620403 -3.13856 0
-0.996956 -5.8294 0
15.0207 31.0069 0
17.5834 31.0069 0
1.39315 -3.6464 0
1.48197 -2.18976 0
2.53886 7.41269 0
1.37539 6.37737 0
8.27833 9.4631 0
5.43055 9.14476 0
8.75163 20.2236 0
-0.0612371 12.0957 0
-2.53806 -2.27939 0
-3.20895 -5.04608 0
-4.19955 0.722004 0
-5.08079 -0.470252 0
-5.39986 -3.94484 0
-4.35797 -1.47985 0
0.446849 6.83911 0
-0.460606 6.39918 0
9.3843 5.03792 0
7.80731 4.22295 0
5.72402 -1.75197 0
7.47452 -3.72081 0
1.93735 -6.09704 0
1.94309 -4.07027 0
-6.03077 -0.359463 0
-7.60583 -2.25905 0
-5.24623 3.41425 0
-6.56299 2.15676 0
7.668 0.97348 0
10.1569 -0.665751 0
-12.3482 5.61548 0
-9.29458 5.81266 0
12.8514 6.84368 0
10.7594 6.62901 0
-2.65404 2.08627 0
-3.55206 0.717954 0
-9.29505 -0.0829354 0
-6.54533 1.58719 0
-3.46963 5.33308 0
-4.21176 3.34233 0
-6.70493 5.38756 0
-6.27944 4.59369 0
8.27723 6.35307 0
8.47643 6.83724 0
-0.871825 11.9318 0
-0.634452 10.8092 0
12.5493 9.81021 0
9.87325 11.0763 0
9.72924 13.3617 0
1.77264 10.967 0
7.8513 8.10259 0
9.05482 8.82385 0
-7.18531 6.89601 0
-7.52851 7.64525 0
-2.32005 14.2347 0
0.666143 13.4118 0
-9.8825 11.848 0
-4.04002 11.7372 0
9.05344 8.82595 0
12.5697 9.34767 0
-10.6719 12.9951 0
-13.223 13.4255 0
-12.623 9.02413 0
-9.10176 9.30027 0
12.5918 17.7665 0
9.97635 16.0564 0
8.1198 10.3809 0
5.988 10.5489 0
-9.10182 9.29774 0
-7.21887 8.61734 0
2.11403 13.9434 0
3.87051 12.3037 0
-4.32992 10.1428 0
-3.56354 9.49526 0
4.58751 12.053 0
3.69619 10.5045 0
12.8785 11.4961 0
10.0745 11.615 0
-2.93451 13.806 0
-4.48177 12.6969 0
-13.4799 26.2253 0
-0.0666488 15.0252 0
-6.40148 10.2056 0
-4.34927 11.9465 0
-12.703 9.73922 0
-9.29315 10.3355 0
5.66388 16.1299 0
7.86342 14.1923 0
-1.22426 13.788 0
-0.702014 12.1355 0
-10.2935 17.2386 0
-13.4799 16.2515 0
16.6335 37.2524 0
2.03245 15.0401 0
-3.01825 16.4777 0
-10.233 17.6335 0
-10.6279 12.326 0
-13.0791 11.5372 0
-6.49246 13.9935 0
-5.93189 12.8998 0
-6.27793 10.9545 0
-7.08569 11.8816 0
13.1021 13.194 0
10.5133 13.9253 0
-11.1223 18.7462 0
-14.0828 18.7076 0
5.77 11.6521 0
4.59398 12.0291 0
9.90985 15.2374 0
7.91588 14.7659 0
3.68906 13.456 0
6.31223 15.4929 0
-2.13984 15.7079 0
-0.645182 16.027 0
13.9675 20.1204 0
11.259 21.2363 0
0.0670008 14.9986 0
0.996637 15.7077 0
12.0086 22.9781 0
3.64256 15.5983 0
12.9721 12.3288 0
9.86264 12.849 0
-8.34165 13.4757 0
-8.3657 12.6078 0
-9.19051 10.6757 0
-7.08884 11.5053 0
-9.8753 16.85 0
-6.09909 15.7994 0
15.6955 42.6042 0
16.9198 43.8301 0
1.51607 13.3087 0
2.3243 11.7701 0
-3.91946 15.4469 0
-3.80692 14.2335 0
-13.2985 15.4869 0
-10.0722 16.1823 0
-0.385461 17.5741 0
-0.460969 17.5216 0
7.42765 12.5497 0
6.99838 13.4608 0
8.35556 10.891 0
7.29564 12.2751 0
-11.0669 18.167 0
-13.7233 17.0688 0
-2.71109 16.4771 0
-1.74643 17.9217 0
1.29216 16.8387 0
2.90702 16.8302 0
5.9639 13.6246 0
5.68007 14.236 0
-7.36443 17.1251 0
-7.1393 17.58 0
-9.00454 14.7286 0
-6.30751 14.9604 0
3.62459 15.5543 0
4.40414 14.3116 0
-10.5249 20.6981 0
-3.8748 17.7348 0
14.4859 21.1503 0
12.1587 22.1518 0
-16.4286 25.3837 0
-14.0127 25.4498 0
8.07135 16.5612 0
7.2232 15.5898 0
12.5898 17.9951 0
8.8639 19.3792 0
3.66406 18.1295 0
5.45302 18.7751 0
0.951083 19.5027 0
3.04975 18.5836 0
-1.03393 25.4659 0
-3.64381 24.0897 0
-3.23119 22.4133 0
-4.48471 19.6327 0
-6.11325 14.695 0
-4.00019 14.1189 0
-9.7117 19.6118 0
-8.1615 18.5449 0
7.50054 23.379 0
6.79373 20.5614 0
-13.18 14.7543 0
-9.35034 15.2357 0
-9.3082 15.3452 0
-7.11078 16.3605 0
-0.372189 19.7367 0
-0.133146 19.4303 0
14.6568 30.1692 0
2.00999 22.9046 0
16.9731 26.8427 0
14.8784 27.1841 0
-15.054 20.7052 0
-12.3091 21.3928 0
-5.30018 16.1611 0
-5.13287 17.4095 0
7.54661 17.3955 0
6.3963 17.3816 0
1.05786 17.2179 0
1.6573 18.2895 0
10.141 15.7067 0
13.0382 16.0027 0
12.5651 17.8759 0
8.07395 16.8831 0
-11.9214 22.3662 0
-4.46502 19.9764 0
-2.24613 18.9243 0
-3.5189 18.7848 0
3.48837 23.271 0
4.09307 22.5957 0
-5.73058 17.9273 0
-5.61321 19.063 0
3.67305 17.5946 0
5.68413 16.6723 0
-1.98174 22.2813 0
-0.404639 23.6521 0
1.94616 28.4572 0
12.3136 30.1942 0
-12.5938 43.8625 0
-14.012 44.6132 0
-5.2389 48.369 0
-2.642 24.9732 0
-14.2678 19.0661 0
-12.0657 20.9561 0
-1.83941 19.6407 0
-3.52975 20.6241 0
-7.38641 20.6615 0
-5.88553 20.9831 0
13.1038 26.134 0
11.7749 29.1114 0
4.64842 20.934 0
6.27382 21.2542 0
11.228 21.3472 0
8.26757 22.235 0
12.9853 18.6325 0
10.977 20.8809 0
-13.5751 24.5705 0
-3.79764 21.8375 0
16.238 24.9385 0
14.4359 26.2645 0
2.06535 20.5554 0
3.24224 19.778 0
-15.7123 22.2595 0
-13.5943 23.463 0
-1.92843 27.0864 0
3.89321 24.4507 0
0.162206 21.1215 0
1.69251 21.5193 0
-8.15342 18.6568 0
-6.84341 19.6054 0
7.89902 18.54 0
6.39443 19.3809 0
-1.51492 21.4967 0
-2.21979 20.3595 0
12.5624 17.886 0
8.01572 18.1828 0
-2.71139 24.6341 0
-1.4595 23.4231 0
-5.80613 21.579 0
-4.82676 22.187 0
-4.60381 24.3137 0
-5.19393 23.5465 0
-14.0886 18.7159 0
-10.4529 20.326 0
5.27319 24.5028 0
5.86133 23.3724 0
-0.359604 29.6767 0
5.32583 48.2651 0
-8.18319 21.6069 0
-7.87921 22.6997 0
1.92108 49.3877 0
1.55465 51.3093 0
-10.2462 27.8303 0
-8.06458 30.0993 0
9.37195 20.6704 0
8.14187 21.9067 0
14.9709 22.1373 0
12.4695 23.3352 0
5.57478 22.8107 0
6.43284 21.6458 0
2.11017 21.1755 0
3.83806 21.7578 0
3.28243 25.0646 0
5.2559 28.5342 0
4.45709 20.2028 0
5.55465 19.1356 0
1.57934 23.3233 0
1.85543 24.5681 0
12.7017 18.2302 0
9.3488 20.5382 0
-5.91981 36.2685 0
-4.71237 31.8641 0
-13.9933 27.8344 0
-16.6316 27.5867 0
-0.243265 21.6095 0
0.232283 22.9762 0
-7.2828 22.8635 0
-6.96859 23.6409 0
-9.70769 19.9836 0
-7.38634 20.659 0
8.79556 25.7015 0
9.74209 23.9087 0
-16.266 24.0881 0
-13.8248 24.2284 0
-7.40459 24.3955 0
-7.40049 25.9758 0
4.6176 32.5048 0
8.69704 31.2733 0
-14.2072 29.8169 0
-9.93572 28.8218 0
8.65185 26.1927 0
5.73123 27.4529 0
2.37279 28.0695 0
1.31419 26.3327 0
-4.84807 26.0893 0
-4.73806 26.1568 0
16.5163 41.2973 0
18.1228 41.8184 0
-0.144106 24.6573 0
1.19156 25.1235 0
-9.47464 23.5483 0
-9.61534 23.986 0
5.89083 37.347 0
6.07224 43.8885 0
-3.33388 25.8312 0
-2.78107 26.9597 0
14.6377 27.6236 0
12.4035 27.91 0
-10.4282 45.9711 0
-11.335 47.6369 0
-11.4631 44.5915 0
-7.58167 35.1971 0
9.99346 23.3741 0
9.54891 22.4381 0
-10.6366 25.9969 0
-9.09591 24.5912 0
12.84 25.6114 0
10.4365 25.2919 0
-2.44402 37.6938 0
-0.672624 31.2197 0
-9.82254 21.5265 0
-10.3166 22.5228 0
17.2606 28.3535 0
15.1838 28.5242 0
15.4057 22.9759 0
13.1359 24.4104 0
16.184 34.928 0
12.927 34.1396 0
-1.905 29.6844 0
-1.52462 28.0212 0
-14.8205 35.4033 0
-16.734 35.2354 0
3.37907 25.9921 0
2.19181 26.7649 0
7.95778 30.2716 0
7.18768 27.2274 0
5.85185 25.1142 0
4.87084 26.0926 0
-6.12075 29.23 0
-5.50532 29.8961 0
7.98365 24.1114 0
7.79552 24.5853 0
6.02968 30.1777 0
6.31129 32.6789 0
-13.9208 27.9989 0
-10.8903 27.6696 0
17.1124 36.8189 0
19.0799 37.1296 0
-8.87553 26.9642 0
-5.9921 28.5494 0
-13.0835 37.63 0
-10.0223 33.7698 0
3.24529 31.8454 0
2.64444 32.2383 0
-16.5311 26.5405 0
-13.6976 26.6464 0
-16.7457 28.9917 0
-14.6565 29.0705 0
-0.393561 41.0867 0
2.89681 42.9499 0
[...]
CELL_DATA 1425
SCALARS current_Length float
LOOKUP_TABLE default
0.881394
1.02548
1.48107
1.46726
1.65356
1.46796
0.5295
1.02928
1.77922
1.09254
1.0321
1.21628
1.75364
1.48696
0.486564
0.160469
1.74817
1.02073
0.034807
0.59215
0.564046
0.833176
0.277794
0.710474
1.2999
1.0685
0.776986
1.06182
0.852913
2.05054
0.422413
0.532015
1.9075
0.499051
1.3241
1.1538
0.771965
0.825763
1.06811
0.954792
1.32436
0.859125
2.02642
0.00249762
1.27222
1.60292
1.49863
0.897892
0.765126
1.06221
0.720815
0.88204
1.19152
1.58167
1.8733
0.977384
0.95681
1.59373
1.19997
1.44311
1.10284
0.634683
0.708933
0.518599
1.0956
0.862263
1.12413
2.19274
1.73407
1.4587
0.87792
1.07069
1.38122
0.886079
1.15638
0.924136
0.9814
1.82996
1.10561
1.13307
0.850505
1.91278
0.336046
0.629954
0.552523
0.569845
1.00322
0.00250005
1.42189
0.0024883
1.27774
1.80248
0.709535
0.714522
1.29606
1.59709
0.00251547
1.68417
0.43231
0.530875
1.2275
1.02926
0.461961
1.55802
0.181608
0.598881
1.46007
0.383743
0.848454
1.5622
1.00632
1.18406
0.983535
1.24144
1.02864
1.61745
0.734067
1.00337
1.22084
0.468609
1.43861
0.0025067
1.36923
0.885476
0.594754
2.14707
0.722383
1.32044
2.33062
0.047906
1.08388
1.06296
2.07049
1.32429
2.57379
0.930426
2.70589
1.10768
2.26858
2.28381
1.63998
3.13676
0.195402
3.2424
1.28193
2.10886
2.1943
0.814915
2.19064
2.06294
2.32888
0.454157
2.63131
3.62406
1.05619
2.60037
1.28078
2.46956
1.16046
2.04564
2.06843
1.39678
2.75196
0.942697
3.04199
0.708676
2.57207
2.64818
1.75545
2.81926
0.621887
2.76106
1.39666
2.05921
1.55591
1.9324
2.08301
0.785772
2.12823
1.02605
0.0100808
0.550332
4.09739
0.780892
1.01462
3.0242
1.52038
1.68845
1.29708
0.254076
1.12806
1.88994
1.89245
1.02767
1.00639
1.22998
1.1497
1.1375
1.7166
1.3376
1.22006
0.914716
1.04082
2.14856
1.09783
1.34966
1.3675
0.654918
1.7054
0.00250169
1.80863
1.44638
1.40837
0.817068
1.5701
1.59969
0.654765
1.42344
1.75855
1.67521
1.65186
1.88699
0.745347
1.13076
2.17842
0.514453
0.720584
2.48092
0.00249813
1.39512
1.58169
1.43961
1.81467
1.53502
0.672292
1.72556
2.71706
0.934724
1.81943
2.56275
0.694337
1.00223
1.45935
1.32561
1.03701
1.55742
0.507384
0.584291
2.86552
0.674977
0.642013
1.98683
0.61456
1.70354
2.84687
1.08198
0.956414
1.48259
0.75007
0.968102
2.67614
1.71965
0.766509
1.00847
0.145044
1.18566
1.77513
0.72121
1.7399
2.6345
2.08899
1.12839
2.02677
0.757186
1.86046
2.46764
1.16844
0.918063
1.82074
0.295298
1.05348
2.98023
1.41245
0.0224891
3.06
1.48414
0.720165
2.10292
1.03001
0.647497
1.63669
0.898264
0.445078
3.21719
0.948324
1.03697
2.12458
1.18192
2.04337
0.900703
1.63231
1.80029
0.523554
1.72153
1.48121
1.14735
1.71773
0.575061
2.96048
0.965608
2.15336
2.04235
1.41135
1.68526
1.40309
1.14839
1.27444
0.824108
1.59896
1.50375
0.136263
0.499157
1.6205
0.762034
0.00251365
1.03621
3.55472
1.46903
0.982643
2.58715
0.979426
0.00252234
3.5321
0.112536
1.97075
3.12494
0.561951
1.1245
2.1384
1.48017
1.02022
2.0021
0.872
1.63569
1.64872
1.55687
1.16249
1.00335
0.759561
1.61001
1.76935
0.837917
1.00072
2.80657
0.749222
1.46424
0.971496
0.570891
1.69431
1.5059
0.801979
0.373424
0.759006
0.71955
0.747154
3.46159
2.09007
2.08907
0.575936
1.18333
0.265218
1.73308
0.399416
0.85279
3.33585
0.948064
1.09969
1.48661
0.307156
0.990013
1.40569
0.670508
1.89378
2.57505
1.9203
1.47168
1.22899
2.16883
1.53882
0.37632
1.83003
0.643038
2.6901
0.940895
1.05097
2.96077
1.64795
0.0247392
1.235
0.386581
0.908941
2.04896
1.1665
1.07643
1.27817
1.48423
1.15687
1.52834
1.15311
0.115102
2.92934
1.69619
1.23234
1.16919
0.583127
0.0475478
2.05363
0.874951
0.529823
3.15264
1.32245
1.69648
0.868254
0.355307
0.980276
2.25949
0.696129
0.864536
2.5259
1.54326
2.34393
1.73255
0.856159
0.974298
1.73798
0.876965
0.224669
1.21861
0.742092
1.13336
3.30036
1.42119
1.25639
0.0919347
2.14617
1.13289
1.00716
1.52896
0.304719
1.74326
0.581833
1.6778
2.87445
0.958111
1.34627
1.73703
1.16892
1.43478
1.61489
1.04736
1.40696
0.674049
0.805554
1.52118
0.50751
0.94718
0.32889
2.70696
1.67311
1.1151
1.46691
0.37893
1.4509
1.10869
1.09964
0.839851
2.53351
1.3058
0.982159
2.41681
0.321883
0.916111
1.28956
0.260352
0.851849
3.97464
0.534931
1.00514
1.90189
1.08664
0.763922
1.40378
1.18074
0.985805
1.68185
1.72642
1.08609
1.13768
0.797436
1.5013
2.19018
1.65505
2.2631
1.82767
1.63922
0.874868
1.72882
0.348012
0.613736
3.85978
0.117314
1.15688
2.42068
1.1203
1.87331
0.388651
0.913235
1.20232
2.34337
1.53788
0.501062
2.1224
1.81791
0.499942
2.82971
1.55451
1.29945
1.25957
0.916474
1.68273
1.15039
0.445793
1.42317
1.22783
0.52311
0.98595
2.91221
0.0104871
0.735278
4.5996
1.04775
0.344213
1.61246
0.823796
1.28519
1.2804
1.52311
0.875795
0.906496
0.790804
1.26417
1.14171
1.08221
0.542708
2.2125
1.27665
0.928693
1.07941
1.54542
0.511777
0.219796
0.673245
2.20891
1.60463
1.36596
0.346122
1.29441
0.393451
1.56226
2.902
1.47036
0.807721
0.813243
0.00250928
1.74109
1.53495
1.33844
1.20944
1.74188
0.755848
0.866191
1.65663
1.23031
1.37733
2.00235
1.78282
0.453725
3.01467
0.423576
1.24259
1.40819
2.04118
1.02053
2.2374
1.53289
1.20983
1.41047
0.968547
1.38381
2.43605
1.44158
1.24724
1.21544
1.48434
0.540988
1.58115
0.112176
1.3445
1.61745
1.27875
1.24624
1.7236
0.912991
1.3364
1.33793
0.11251
0.375807
4.55638
1.07975
1.25555
1.74178
0.601165
1.08686
1.15274
0.663777
0.616909
0.967961
0.010086
0.820121
3.97624
1.38096
0.630616
1.27427
1.56412
0.689287
1.40499
1.23638
0.618499
1.13425
1.29947
2.13157
1.95616
1.62143
0.141715
1.6509
1.61883
0.351603
1.74397
0.944654
0.749809
2.77347
1.49722
0.422685
1.44675
0.621741
1.15558
1.82338
0.865966
0.537298
0.932523
1.28698
0.37457
1.53087
0.600602
1.5109
1.2751
0.49222
0.134186
4.07053
0.710874
1.34427
1.00016
1.32737
1.36232
2.64995
0.634432
1.39105
1.44706
1.95716
1.77718
0.838532
0.37182
1.18524
2.41762
0.841787
0.877381
1.24347
1.9105
0.799424
2.44517
0.87145
1.83633
0.720302
1.12472
1.24494
0.543109
0.871247
1.03897
2.19502
0.254384
1.18109
1.2941
0.576492
1.23365
0.978271
0.872172
1.44143
0.129035
0.857069
1.74015
1.68892
1.03846
0.865565
1.41469
1.80705
1.7026
0.459761
0.751049
0.997479
0.898727
1.10218
0.862001
1.25663
1.0532
0.747532
2.25254
1.48629
1.44825
1.89656
1.34537
1.01007
1.2754
0.590792
1.29733
1.03618
0.737843
0.79754
1.12528
0.58538
1.69133
1.89981
0.837609
1.57297
1.46792
1.64132
1.32684
1.11205
1.39344
0.960732
2.08381
1.81711
0.604874
2.68503
0.645984
1.52
0.826433
1.43104
1.01834
0.716183
1.14073
1.82757
1.9208
0.594178
1.31701
1.41663
1.06666
1.47381
1.04964
2.01435
1.60964
0.119708
0.692577
1.12306
0.906917
1.77008
1.49869
0.509864
1.93039
1.7522
0.198972
0.179735
0.595979
2.0361
1.25029
2.10486
1.99194
1.39555
1.38736
1.59011
0.475754
1.37324
1.77924
1.5225
1.10329
0.717951
1.16134
0.474033
2.8354
1.40966
1.29987
2.09066
1.47373
1.26207
1.40693
1.60782
1.73715
0.328589
1.21848
1.49049
0.840301
0.426494
1.83223
1.44002
0.64625
1.24674
0.955332
0.0025015
1.70628
1.41512
0.60529
0.922834
1.60189
1.80695
1.23303
1.51015
1.8274
0.728864
1.40185
0.778064
0.460869
2.02151
0.195593
1.42275
1.79662
0.911683
1.12873
0.561979
2.36429
2.21935
0.87949
1.27197
1.22197
0.96362
0.660667
1.23628
1.48699
0.719908
0.539083
3.2686
1.18881
1.06934
0.703396
1.44623
2.23445
1.83834
0.314689
0.77561
2.82959
0.649459
1.23457
2.00876
1.75149
1.46339
1.0435
1.76394
1.70557
0.908404
0.702193
0.94665
1.69897
0.458474
1.21874
2.35544
0.00250213
1.43369
0.540627
1.46236
0.656105
2.27448
1.0253
1.06802
1.11733
1.01308
1.23639
1.05175
0.675754
0.898861
0.59335
1.47313
0.502636
0.922031
1.27959
0.429211
2.54032
1.28097
0.773476
1.06832
1.04336
1.05551
1.9617
1.18985
1.33198
0.915328
0.820502
1.66471
1.74397
1.01561
1.24442
2.11594
0.847205
1.16463
2.06072
0.741911
1.29187
2.02311
0.886524
1.8633
2.31668
0.966603
1.56552
1.31358
0.948779
1.42148
0.255568
0.536533
0.705841
2.44696
0.939842
1.39414
0.866549
0.788274
1.11279
1.58575
1.78167
1.71821
1.20715
1.03848
1.30675
1.16211
0.258083
1.08899
1.84859
1.16165
1.85163
1.32781
0.375831
0.864672
1.49393
0.309328
0.401444
0.657398
1.423
0.651453
0.842122
1.38893
0.404427
1.93574
1.00937
0.738817
1.23111
1.85737
0.502742
1.82809
1.40981
0.850536
2.22282
1.33904
1.19132
1.35354
1.31141
0.912102
1.58634
2.0368
1.47445
1.03456
0.955508
0.853972
0.841419
1.20221
1.58422
1.23649
1.25318
0.612224
0.849337
1.01733
0.94685
1.75455
0.982552
1.53931
1.77836
1.04992
1.50892
2.02921
2.06548
1.25889
2.05541
1.76445
1.44928
0.55186
0.930109
0.989054
1.28157
0.755107
0.811996
1.3833
1.96394
1.76138
0.124264
1.99117
2.1262
1.61731
1.17853
1.24195
0.771098
1.54425
1.08035
1.005
1.87381
1.74082
1.02056
1.42894
0.584521
1.7765
1.37946
0.864563
2.10402
1.24901
0.111147
2.99218
0.837996
1.48348
1.91046
1.38678
0.115588
1.22107
1.42535
1.52259
1.47499
1.2849
1.69967
0.192205
2.17816
1.22182
2.01309
0.995347
0.172075
2.54566
0.635523
0.777937
0.629604
1.87597
0.979699
0.666698
0.291106
1.07582
2.20684
1.96944
1.321
0.38693
0.678072
1.32475
1.6738
1.3937
1.4212
0.564663
0.952692
1.45764
1.93315
1.42485
0.837291
1.81474
0.764807
0.659745
1.27114
1.48398
1.31587
0.88177
0.79665
1.46058
1.38354
1.35986
0.88233
1.27794
0.942032
0.97837
1.2909
1.21877
1.01054
2.14506
0.51514
0.641502
2.33636
1.18761
0.29361
1.32746
2.00489
1.59493
1.27065
0.751692
1.11927
1.21124
1.19262
0.945489
1.03747
1.66111
1.66594
0.879669
1.16262
0.972645
1.19063
1.18599
1.95161
1.20916
0.633781
1.10351
1.0377
0.991993
1.59443
1.11035
1.05979
1.15169
0.64414
1.07187
1.32816
1.96184
0.6577
1.91148
1.7368
1.45213
1.05984
1.41882
0.492817
0.766749
1.31888
0.753216
1.26528
1.66365
0.763631
0.965398
2.78786
1.16232
1.31692
1.38913
1.94294
0.981428
1.51167
0.681888
1.16814
1.36944
1.17673
0.431618
0.998126
0.849681
1.01351
1.00756
1.82113
0.426709
1.95354
1.21359
0.741254
1.60033
1.58259
0.832103
1.0865
1.11753
1.66285
1.42745
1.82056
1.63476
0.604157
1.04935
1.14238
0.818025
1.22519
0.986669
1.60159
0.886986
0.659691
3.1368
1.06078
1.46949
1.91337
0.855293
0.743096
1.44615
2.02497
1.34981
1.13654
1.33399
0.965335
2.2365
1.55955
1.07991
0.716887
0.975997
1.41551
1.50674
1.36049
0.954488
1.23602
1.2112
0.719621
0.932112
1.29724
0.782917
2.20607
0.928354
0.446455
1.55777
0.909703
1.31242
0.564212
1.28938
0.179215
1.65489
1.41671
1.19248
1.02108
0.913279
0.986084
1.7699
1.01869
1.54954
1.8723
1.39265
0.738694
2.3546
1.33939
0.492941
2.83654
1.26352
1.00459
1.07248
0.800604
0.377729
1.62979
1.02052
1.63958
1.91517
0.378754
0.296349
1.22575
1.36141
1.56237
1.23396
1.40525
0.865108
1.57778
1.21459
0.763852
1.83524
1.19601
1.00346
1.07418
1.05133
0.943051
1.41671
1.85154
1.41061
1.36004
1.14217
0.93885
1.62214
1.65049
1.66709
0.50707
1.13141
0.974433
1.28689
1.42987
0.883749
0.834195
0.709866
1.2924
1.42479
1.35146
1.56901
0.711904
0.636727
0.362439
2.49836
0.619123
1.30145
1.67958
1.71283
1.20282
0.864773
1.18324
1.01265
0.561439
0.366514
1.92118
1.40112
2.57855
0.44742
0.343832
1.09607
1.30929
1.20306
0.436606
0.447495
1.75631
1.52537
1.38879
0.822094
1.63936
1.12284
0.790573
1.11139
1.95995
1.2571
1.12467
1.33759
1.30119
0.632073
0.502181
1.7316
0.947389
0.73738
1.74486
0.680064
1.71881
2.01585
1.09226
2.00673
2.01309
0.793177
1.53106
2.1662
1.16937
0.728503
2.44718
0.79985
0.634158
1.42005
1.2105
1.45794
0.940748
0.772146
0.906553
1.37868
0.57493
1.03317
1.44993
1.63932
1.49134
1.52841
1.50532
1.36034
1.14464
1.07796
1.132
1.74615
0.887116
1.18998
1.96074
1.00451
1.57481
1.10579
0.388884
0.831409
1.71473
0.754672
0.724478
1.96583
1.36618
1.12232
1.59043
0.659735
1.03718
1.33618
1.71178
0.53429
1.17006
0.863024
1.11417
1.79981
1.21078
0.882575
1.96737
1.08464
1.75322
1.86642
1.40367
1.28903
1.92455
1.00715
0.63044
1.70033
0.458705
1.14247
1.83197
0.846389
0.913692
1.67163
0.810531
1.13309
1.21414
1.45484
0.949725
2.1073
1.62376
1.74163
1.12719
3.29074
3.27739
3.2739
166
232
3.25101
3.31562
3.33552
3.35392
55
442
357
32
284
0
0
0
0
0
0
0

SCALARS edge_force float
LOOKUP_TABLE default
0.5
0.5
0.5
0.5
0.5
0.5
0.5
0.5
0.5
0.5
0.5
0.5
0.5
0.5
0.5
0.5
0.5
0.5
0.5
0.5
0.5
0.5
0.5
0.5
0.5
0.5
0.5
0.5
0.5
0.5
0.5
0.5
0.5
0.5
0.5
0.5
0.5
0.5
0.5
0.5
0.5
0.5
0.5
0.5
0.5
0.5
0.5
0.5
0.5
0.5
0.5
0.5
0.5
0.5
0.5
0.5
0.5
0.5
0.5
0.5
0.5
0.5
0.5
0.5
0.5
0.5
0.5
0.5
0.5
0.5
0.5
0.5
0.5
0.5
0.5
0.5
0.5
0.5
0.5
0.5
0.5
0.5
0.5
0.5
0.5
0.5
0.5
0.5
0.5
0.5
0.5
0.5
0.5
0.5
0.5
0.5
0.5
0.5
0.5
0.5
0.5
0.5
0.5
0.5
0.5
0.5
0.5
0.5
0.5
0.5
0.5
0.5
0.5
0.5
0.5
0.5
0.5
0.5
0.5
0.5
0.5
0.5
0.5
0.5
0.5
0.5
0.5
0.5
0.5
0.5
0.5
0.5
0.5
2
0.5
2
0.5
2
0.5
0.5
2
0.5
2
0.5
2
0.5
0.5
2
0.5
2
0.5
2
0.5
0.5
2
0.5
2
0.5
2
0.5
0.5
2
0.5
2
0.5
2
0.5
0.5
2
0.5
2
0.5
2
0.5
2
2
2
2
2
2
2
0.5
0.5
2
0.5
0.5
0.5
0.5
0.5
0.5
0.5
0.5
0.5
0.5
0.5
0.5
0.5
0.5
0.5
0.5
0.5
0.5
0.5
0.5
0.5
0.5
0.5
0.5
0.5
0.5
0.5
0.5
0.5
0.5
0.5
0.5
0.5
0.5
0.5
0.5
0.5
0.5
0.5
0.5
0.5
0.5
0.5
0.5
0.5
0.5
0.5
0.5
0.5
0.5
0.5
2
0.5
0.5
2
0.5
0.5
0.5
0.5
0.5
0.5
0.5
0.5
0.5
0.5
0.5
0.5
0.5
0.5
2
0.5
0.5
0.5
0.5
2
0.5
0.5
0.5
0.5
0.5
0.5
0.5
0.5
0.5
2
0.5
2
0.5
0.5
0.5
2
0.5
0.5
0.5
0.5
0.5
2
0.5
2
0.5
0.5
2
0.5
0.5
0.5
0.5
0.5
2
0.5
0.5
0.5
0.5
0.5
0.5
0.5
0.5
0.5
0.5
0.5
0.5
0.5
0.5
2
0.5
0.5
0.5
0.5
0.5
0.5
0.5
0.5
0.5
0.5
0.5
0.5
0.5
0.5
0.5
0.5
0.5
0.5
2
0.5
0.5
2
0.5
2
0.5
0.5
2
0.5
0.5
0.5
0.5
0.5
0.5
0.5
0.5
0.5
0.5
0.5
0.5
0.5
0.5
0.5
0.5
0.5
2
0.5
0.5
0.5
0.5
0.5
0.5
0.5
0.5
0.5
0.5
0.5
2
0.5
0.5
0.5
0.5
0.5
0.5
0.5
0.5
0.5
2
0.5
0.5
0.5
0.5
0.5
0.5
0.5
0.5
2
0.5
0.5
0.5
0.5
0.5
0.5
0.5
2
0.5
0.5
0.5
2
0.5
0.5
0.5
0.5
0.5
0.5
0.5
0.5
0.5
0.5
0.5
0.5
0.5
2
0.5
0.5
0.5
0.5
0.5
0.5
0.5
0.5
2
0.5
0.5
0.5
0.5
0.5
0.5
0.5
0.5
0.5
0.5
0.5
0.5
2
0.5
0.5
0.5
0.5
0.5
0.5
0.5
2
0.5
0.5
0.5
0.5
0.5
0.5
0.5
0.5
0.5
0.5
0.5
0.5
2
0.5
0.5
0.5
0.5
0.5
0.5
0.5
0.5
0.5
0.5
0.5
0.5
0.5
0.5
0.5
0.5
0.5
0.5
0.5
0.5
0.5
0.5
2
0.5
0.5
2
0.5
0.5
0.5
0.5
0.5
2
0.5
0.5
0.5
0.5
0.5
0.5
0.5
0.5
0.5
0.5
0.5
0.5
0.5
0.5
0.5
0.5
0.5
0.5
0.5
0.5
0.5
0.5
0.5
2
0.5
0.5
0.5
0.5
0.5
0.5
0.5
0.5
0.5
0.5
0.5
2
0.5
0.5
2
0.5
0.5
0.5
0.5
0.5
0.5
0.5
0.5
0.5
0.5
0.5
0.5
2
0.5
2
0.5
0.5
0.5
0.5
0.5
0.5
0.5
0.5
0.5
0.5
0.5
0.5
0.5
0.5
0.5
0.5
0.5
0.5
0.5
0.5
0.5
0.5
0.5
0.5
2
0.5
0.5
0.5
0.5
2
0.5
0.5
0.5
0.5
0.5
0.5
0.5
0.5
0.5
0.5
0.5
0.5
0.5
0.5
0.5
0.5
0.5
2
0.5
0.5
0.5
0.5
0.5
2
0.5
0.5
0.5
0.5
0.5
2
0.5
0.5
0.5
0.5
0.5
0.5
0.5
0.5
0.5
0.5
0.5
0.5
0.5
0.5
0.5
0.5
0.5
2
0.5
0.5
0.5
0.5
0.5
0.5
0.5
0.5
0.5
0.5
0.5
2
0.5
0.5
0.5
0.5
0.5
0.5
0.5
0.5
0.5
0.5
0.5
0.5
2
0.5
0.5
0.5
0.5
0.5
0.5
0.5
2
0.5
0.5
0.5
0.5
0.5
0.5
0.5
0.5
0.5
0.5
0.5
0.5
0.5
0.5
0.5
0.5
0.5
2
0.5
0.5
0.5
0.5
0.5
0.5
2
0.5
0.5
0.5
0.5
0.5
0.5
0.5
0.5
0.5
0.5
0.5
0.5
0.5
2
0.5
0.5
0.5
0.5
0.5
0.5
0.5
0.5
0.5
0.5
0.5
0.5
0.5
0.5
0.5
0.5
0.5
0.5
0.5
0.5
0.5
2
0.5
0.5
0.5
0.5
0.5
0.5
0.5
0.5
0.5
0.5
0.5
0.5
0.5
0.5
0.5
0.5
0.5
2
0.5
0.5
0.5
0.5
0.5
0.5
0.5
0.5
0.5
0.5
0.5
0.5
0.5
0.5
0.5
0.5
0.5
0.5
0.5
2
0.5
0.5
2
0.5
0.5
0.5
0.5
0.5
0.5
0.5
0.5
0.5
2
0.5
0.5
0.5
0.5
0.5
0.5
0.5
0.5
0.5
0.5
0.5
0.5
0.5
0.5
0.5
0.5
0.5
0.5
0.5
0.5
0.5
0.5
0.5
2
0.5
0.5
0.5
0.5
0.5
0.5
0.5
0.5
0.5
0.5
2
0.5
0.5
2
0.5
0.5
0.5
0.5
0.5
0.5
0.5
0.5
0.5
0.5
0.5
0.5
0.5
0.5
0.5
0.5
0.5
0.5
0.5
0.5
0.5
0.5
0.5
2
0.5
0.5
0.5
0.5
0.5
0.5
0.5
0.5
0.5
0.5
0.5
0.5
0.5
0.5
0.5
0.5
0.5
0.5
0.5
0.5
0.5
0.5
0.5
2
0.5
0.5
0.5
0.5
0.5
0.5
2
0.5
2
0.5
0.5
0.5
0.5
0.5
0.5
0.5
0.5
0.5
0.5
0.5
0.5
0.5
0.5
0.5
0.5
0.5
0.5
0.5
0.5
2
0.5
0.5
0.5
0.5
0.5
0.5
0.5
0.5
0.5
0.5
0.5
0.5
0.5
0.5
2
0.5
0.5
0.5
0.5
0.5
0.5
0.5
0.5
0.5
0.5
0.5
2
0.5
0.5
0.5
0.5
0.5
0.5
0.5
0.5
0.5
0.5
0.5
0.5
2
0.5
0.5
0.5
0.5
0.5
0.5
0.5
0.5
0.5
0.5
0.5
0.5
0.5
0.5
0.5
0.5
0.5
0.5
0.5
0.5
0.5
0.5
0.5
0.5
0.5
0.5
0.5
0.5
0.5
0.5
0.5
0.5
0.5
0.5
0.5
0.5
0.5
0.5
0.5
0.5
0.5
0.5
0.5
2
0.5
0.5
2
0.5
0.5
0.5
0.5
0.5
0.5
0.5
0.5
0.5
0.5
0.5
0.5
0.5
0.5
0.5
0.5
0.5
0.5
0.5
0.5
0.5
0.5
0.5
0.5
2
0.5
0.5
2
0.5
2
0.5
0.5
0.5
0.5
0.5
0.5
0.5
0.5
0.5
0.5
0.5
0.5
0.5
0.5
0.5
0.5
0.5
0.5
0.5
0.5
0.5
0.5
0.5
0.5
0.5
0.5
0.5
0.5
0.5
0.5
0.5
0.5
2
0.5
0.5
0.5
0.5
0.5
0.5
0.5
0.5
0.5
0.5
0.5
0.5
0.5
0.5
2
0.5
0.5
0.5
2
0.5
0.5
0.5
0.5
0.5
0.5
0.5
0.5
0.5
0.5
0.5
0.5
0.5
0.5
0.5
0.5
0.5
0.5
0.5
0.5
2
0.5
0.5
0.5
0.5
0.5
0.5
0.5
0.5
0.5
0.5
0.5
0.5
0.5
0.5
0.5
0.5
0.5
0.5
0.5
2
0.5
0.5
0.5
2
0.5
0.5
0.5
0.5
0.5
0.5
0.5
0.5
0.5
0.5
0.5
0.5
0.5
0.5
0.5
0.5
0.5
0.5
0.5
0.5
0.5
0.5
0.5
0.5
0.5
0.5
0.5
0.5
0.5
0.5
0.5
0.5
2
0.5
0.5
0.5
0.5
0.5
0.5
0.5
0.5
0.5
0.5
0.5
0.5
0.5
2
0.5
0.5
0.5
0.5
0.5
2
0.5
0.5
0.5
0.5
0.5
0.5
0.5
0.5
0.5
0.5
0.5
2
0.5
0.5
0.5
0.5
0.5
0.5
0.5
0.5
0.5
0.5
0.5
0.5
0.5
0.5
0.5
0.5
0.5
0.5
0.5
0.5
2
0.5
0.5
0.5
0.5
0.5
0.5
0.5
0.5
0.5
0.5
0.5
2
0.5
0.5
0.5
0.5
0.5
0.5
0.5
0.5
0.5
0.5
0.5
0.5
0.5
0.5
2
0.5
0.5
0.5
0.5
0.5
0.5
0.5
0.5
0.5
0.5
0.5
0.5
0.5
0.5
0.5
0.5
0.5
0.5
2
0.5
2
0.5
0.5
2
0.5
0.5
0.5
0.5
0.5
0.5
0.5
0.5
0.5
2
0.5
0.5
0.5
0.5
0.5
0.5
0.5
0.5
0.5
0.5
0.5
0.5
0.5
0.5
0.5
0.5
0.5
0.5
0.5
0.5
0.5
0.5
0.5
0.5
0.5
0.5
0.5
0.5
0.5
0.5
0.5
0.5
0.5
0.5
0.5
0.5
0.5
0.5
0.5
0.5
0.5
0.5
0.5
0.5
0.5
0.5
0.5
0.5
0.5
0.5
0.5
0.5
0.5
0.5
0.5
0.5
0.5
0.5
0.5
0.5
0.5
0.5
0.5
0.5
0.5
0.5
0.5
0.5
0.5
0.5
0.5
0.5
0.5
0.5
0.5
0.5
0.5
0.5
0.5
0.5
0.5
0.5
0.5
2
0.5
0.5
2
0.5
0.5
2
0.5
2
0.5
0.5
0.5
0.5
0.5
0.5
0.5
0.5
0.5
0.5
0.5
0.5
0.5
0.5
0.5
0.5
0.5
0.5
0.5
0.5
0.5
0.5
0.5
0.5
0.5
0.5
0.5
0.5
0.5
0.5
0.5
0.5
0.5
0.5
0.5
0.5
0.5
0.5
0.5
0.5
0.5
0.5
0.5
0.5
0.5
0.5
0.5
0.5
0.5
0.5
0.5
2
0.5
2
0.5
0.5
0.5
0.5
0.5
0.5
0.5
0.5
0.5
0.5
0.5
0.5
0.5
0.5
2
0.5
0.5
0.5
0.5
0.5
0
0
0
0
0
0
0
0
0
0
0
0
0
0
0
0
0
0
0
0
0
