# vtk DataFile Version 3.0
2D-vertex
ASCII
DATASET UNSTRUCTURED_GRID

POINTS 192 float
0.130685 -2.34521 0
3.08374 -1.91367 0
3.36451 -1.09986 0
2.37771 -0.189762 0
-0.317632 -0.0835521 0
-1.04245 -1.30065 0
4.18876 -0.9722 0
4.65838 -0.0133833 0
3.76542 1.07821 0
2.45189 0.57342 0
1.13549 1.44625 0
-0.866155 2.17137 0
-1.67485 1.13206 0
-2.03844 1.09078 0
-2.51419 -0.0197388 0
-2.04494 -0.948905 0
5.31039 -0.0548593 0
6.25315 1.20376 0
4.35165 1.9175 0
3.89872 1.73887 0
3.17273 2.356 0
1.70576 2.13131 0
1.20198 5.05757 0
-0.104898 4.95204 0
-0.8216 3.27198 0
-2.67447 2.89408 0
-2.86198 2.05374 0
-3.6774 1.87254 0
-4.23117 0.791479 0
-4.05221 0.240009 0
7.40845 1.51132 0
7.97467 2.85909 0
7.38102 3.8265 0
5.37714 3.83715 0
6.00366 4.85972 0
3.45767 4.98579 0
2.65139 5.76176 0
1.59463 5.7131 0
0.3507 8.60408 0
-1.02135 8.38691 0
-0.907508 5.741 0
-3.07498 5.45383 0
-3.90819 4.39878 0
-4.00797 4.40384 0
-4.78242 3.5452 0
-6.60706 4.40774 0
-7.02835 4.13162 0
-6.10168 1.72254 0
7.81164 5.38635 0
7.46431 5.8216 0
7.12288 5.81487 0
5.69621 7.33009 0
3.45114 7.1895 0
3.07699 7.92474 0
1.47146 8.95215 0
1.87314 10.1206 0
-1.30311 10.709 0
-1.77437 9.04421 0
-3.03777 8.48504 0
-3.32088 6.42941 0
-4.7353 6.99082 0
-5.0572 6.76937 0
-6.88349 7.02828 0
-7.35419 5.71644 0
8.14016 6.87476 0
7.99525 7.31569 0
6.32494 8.07971 0
5.70381 9.94743 0
4.87637 10.1041 0
4.56698 10.8968 0
3.30781 11.1072 0
2.1036 12.1131 0
-0.623103 12.398 0
-1.36797 11.7609 0
-3.59006 11.7021 0
-3.76607 10.7222 0
-4.71797 10.4315 0
-5.22171 8.83004 0
-6.88442 7.66427 0
-7.01196 7.1803 0
8.91265 8.47273 0
7.9223 10.1885 0
6.87549 10.8492 0
6.80074 11.7177 0
5.59402 12.0765 0
5.32816 12.8341 0
2.40104 13.6782 0
2.08439 14.0376 0
-0.757233 14.4079 0
-1.16011 13.9136 0
-4.08906 13.854 0
-4.62239 12.7065 0
-5.40021 12.5528 0
-5.73345 11.4525 0
-7.37883 10.0193 0
-7.77623 8.47264 0
3.96202 -3.49577 0
5.34972 -2.71725 0
6.42433 -1.99937 0
8.80667 0.464353 0
9.75065 2.51142 0
10.2338 5.62187 0
10.268 6.75055 0
10.1624 8.71759 0
9.06944 11.2385 0
7.83883 12.665 0
6.2651 14.0542 0
2.67454 15.8249 0
-1.16552 16.2026 0
-4.7385 14.9983 0
-6.45911 13.7708 0
-8.79198 10.8382 0
-9.43502 8.48859 0
-9.41947 6.87791 0
-9.27182 5.38158 0
-9.16053 4.33845 0
-7.94095 0.794324 0
-5.68164 -1.57993 0
-3.37794 -2.95506 0
-0.0901932 -4.00567 0
4.48782 15.128 0
3.8367 13.8576 0
-2.85199 15.8056 0
-2.28211 14.1251 0
-0.73158 3.15278 0
1.06473 3.30137 0
-2.0773 5.10708 0
-1.81984 3.39176 0
4.88233 5.6932 0
4.85154 6.81171 0
-0.00505348 10.5905 0
0.0617133 8.81799 0
-1.45915 6.87131 0
-2.82873 6.91843 0
5.68939 7.51749 0
4.13953 8.85666 0
3.57469 8.81973 0
2.70242 10.2077 0
0.95278 11.6505 0
0.854561 11.088 0
-1.46029 10.8726 0
-3.25694 10.2832 0
-3.46811 8.77624 0
-4.67106 8.27979 0
1.18234 1.22121 0
-0.338795 0.0446108 0
6.55589 3.61772 0
6.04362 1.43406 0
5.37415 3.84412 0
3.51435 3.99643 0
-2.67088 13.6926 0
-2.41715 12.3035 0
3.22336 3.77147 0
1.65067 4.1829 0
-6.68879 10.2252 0
-5.6112 8.78557 0
-1.18938 -1.3544 0
-1.70228 -3.6572 0
0.615364 14.389 0
1.05187 16.1968 0
1.1445 -1.91522 0
1.2077 -0.75454 0
2.22729 7.92372 0
1.24111 6.49719 0
4.30852 12.9683 0
3.14319 11.6328 0
1.01315 13.8638 0
0.339126 12.3453 0
-3.28954 -0.191919 0
-4.17514 -2.53697 0
-4.75481 2.81871 0
-6.01269 2.24775 0
-6.6341 -0.781835 0
-5.36164 0.834301 0
0.291824 6.81076 0
-0.823876 6.24766 0
7.66425 10.1678 0
6.8638 8.07283 0
6.15607 0.626647 0
7.84882 -0.738975 0
1.75662 -4.07703 0
1.7096 -2.32411 0
-6.97118 2.92661 0
-8.66048 2.23072 0
-5.0537 5.68484 0
-6.5818 5.04544 0
7.79202 4.37425 0
10.0512 3.86058 0
-7.74221 12.4235 0
-6.41586 11.2664 0
7.05196 13.3596 0
5.73399 12.0349 0

CELLS 288 864
2 160 0
2 1 2
2 2 3
2 161 4
2 4 5
2 5 0
2 2 6
2 6 7
2 7 8
2 8 9
2 3 9
2 9 144
2 10 11
2 11 12
2 145 4
2 12 13
2 13 14
2 15 14
2 5 156
2 7 16
2 17 178
2 147 17
2 19 18
2 19 8
2 20 19
2 21 20
2 10 21
2 153 125
2 23 22
2 24 23
2 24 124
2 127 24
2 25 26
2 26 13
2 26 27
2 28 27
2 29 28
2 14 168
2 30 17
2 30 31
2 32 31
2 32 146
2 18 33
2 33 148
2 128 35
2 20 152
2 35 36
2 37 36
2 22 37
2 37 163
2 38 131
2 175 40
2 40 23
2 126 40
2 41 42
2 42 25
2 42 43
2 44 43
2 27 170
2 45 44
2 45 46
2 47 171
2 173 47
2 48 186
2 48 49
2 49 50
2 34 50
2 50 51
2 52 129
2 36 52
2 52 53
2 53 162
2 54 38
2 55 54
2 139 55
2 57 56
2 39 57
2 58 57
2 59 133
2 59 41
2 60 59
2 60 61
2 43 184
2 61 62
2 62 63
2 185 45
2 49 64
2 64 65
2 177 65
2 51 134
2 67 66
2 67 68
2 53 136
2 68 69
2 70 69
2 55 137
2 165 70
2 138 71
2 73 72
2 56 140
2 151 73
2 74 75
2 58 142
2 75 76
2 77 76
2 143 60
2 155 77
2 78 79
2 79 62
2 65 80
2 80 81
2 81 176
2 82 67
2 82 83
2 191 83
2 69 84
2 85 84
2 85 164
2 71 86
2 86 87
2 158 88
2 88 89
2 89 72
2 89 123
2 90 91
2 91 74
2 91 92
2 93 92
2 76 93
2 189 93
2 94 95
2 95 78
2 96 1
2 96 97
2 97 6
2 97 98
2 16 98
2 179 99
2 99 30
2 31 100
2 187 101
2 101 48
2 101 102
2 102 64
2 102 103
2 103 80
2 81 104
2 104 105
2 83 105
2 105 190
2 106 85
2 106 120
2 87 107
2 108 88
2 108 122
2 109 90
2 109 110
2 92 110
2 110 188
2 111 94
2 95 112
2 112 113
2 113 79
2 113 114
2 114 63
2 114 115
2 46 115
2 116 47
2 116 172
2 117 29
2 169 118
2 118 15
2 157 119
2 0 119
2 119 180
2 99 100
2 103 104
2 159 108
2 111 112
2 183 116
2 120 107
2 121 86
2 120 121
2 122 109
2 123 150
2 122 123
2 124 11
2 125 21
2 124 125
2 41 126
2 127 25
2 126 127
2 34 128
2 129 51
2 128 129
2 56 130
2 131 39
2 130 131
2 39 132
2 133 58
2 132 133
2 134 66
2 135 68
2 134 135
2 136 135
2 137 70
2 136 137
2 167 138
2 139 130
2 138 139
2 140 73
2 141 75
2 140 141
2 142 141
2 143 77
2 142 143
2 144 10
2 145 12
2 144 145
2 146 33
2 147 18
2 146 147
2 148 34
2 149 35
2 148 149
2 150 90
2 151 74
2 150 151
2 152 149
2 153 22
2 152 153
2 94 154
2 155 78
2 154 155
2 156 15
2 157 118
2 156 157
2 87 166
2 159 107
2 158 159
2 181 160
2 161 3
2 160 161
2 162 54
2 163 174
2 162 163
2 164 121
2 165 71
2 164 165
2 166 158
2 167 72
2 166 167
2 168 29
2 169 117
2 168 169
2 170 44
2 171 182
2 170 171
2 172 117
2 173 28
2 172 173
2 174 38
2 175 132
2 174 175
2 176 82
2 177 66
2 176 177
2 178 16
2 179 98
2 178 179
2 180 96
2 181 1
2 180 181
2 182 46
2 183 115
2 182 183
2 184 61
2 185 63
2 184 185
2 186 32
2 187 100
2 186 187
2 188 111
2 189 154
2 188 189
2 190 106
2 191 84
2 190 191

CELL_TYPES 288
3
3
3
3
3
3
3
3
3
3
3
3
3
3
3
3
3
3
3
3
3
3
3
3
3
3
3
3
3
3
3
3
3
3
3
3
3
3
3
3
3
3
3
3
3
3
3
3
3
3
3
3
3
3
3
3
3
3
3
3
3
3
3
3
3
3
3
3
3
3
3
3
3
3
3
3
3
3
3
3
3
3
3
3
3
3
3
3
3
3
3
3
3
3
3
3
3
3
3
3
3
3
3
3
3
3
3
3
3
3
3
3
3
3
3
3
3
3
3
3
3
3
3
3
3
3
3
3
3
3
3
3
3
3
3
3
3
3
3
3
3
3
3
3
3
3
3
3
3
3
3
3
3
3
3
3
3
3
3
3
3
3
3
3
3
3
3
3
3
3
3
3
3
3
3
3
3
3
3
3
3
3
3
3
3
3
3
3
3
3
3
3
3
3
3
3
3
3
3
3
3
3
3
3
3
3
3
3
3
3
3
3
3
3
3
3
3
3
3
3
3
3
3
3
3
3
3
3
3
3
3
3
3
3
3
3
3
3
3
3
3
3
3
3
3
3
3
3
3
3
3
3
3
3
3
3
3
3
3
3
3
3
3
3
3
3
3
3
3
3
3
3
3
3
3
3
3
3
3
3
3
3
3
3
3
3
3
3

CELL_DATA 288
SCALARS current_Length float
LOOKUP_TABLE default
1.10124
0.860876
1.34241
1.66639
1.41658
1.57078
0.834085
1.06764
1.4103
1.40719
0.766779
1.42527
2.12894
1.31688
0.129898
0.365918
1.20814
1.04093
0.156456
0.653332
0.585219
0.31136
0.486874
0.673976
0.95285
1.48407
0.891358
1.0585
1.31114
1.82655
0.149371
1.0054
0.861004
1.26708
0.835313
1.21464
0.579778
0.794243
1.19553
1.46188
1.13503
0.851138
2.17639
0.00758737
1.59063
1.41637
1.11903
1.05788
0.764126
0.860104
0.359543
0.513507
1.12546
1.33052
1.34438
1.94581
0.0999106
1.1563
1.43389
2.01824
0.503716
0.532701
1.15613
1.0123
0.556846
0.341499
1.47138
2.08118
1.45046
1.63647
0.824965
0.849693
1.17357
1.23554
1.4048
1.73017
0.999536
1.38162
0.693793
1.0061
1.52176
0.390715
1.65364
1.84455
1.39373
0.638197
1.25137
0.46413
1.36141
0.187522
1.96829
0.842138
1.02407
0.850924
1.27662
0.833839
0.550783
1.24034
0.980197
0.226904
1.18119
0.995538
0.519604
0.995307
1.67881
1.29057
0.392025
0.500489
0.19904
1.47661
1.98105
0.258884
1.47854
0.871666
1.25895
1.56416
0.802884
1.02843
1.59307
0.479038
1.37273
0.637683
1.60793
1.14175
1.26536
1.44035
0.792865
1.14966
1.44
0.707309
1.59687
1.20366
1.80954
1.59116
2.09595
1.29235
2.24098
1.53801
1.74676
1.80969
1.77074
2.43363
1.1292
2.13146
1.96987
1.27349
1.55514
1.88397
1.40536
2.09918
1.53835
2.07647
1.88219
1.84055
1.73258
1.31578
2.1136
1.61394
1.8605
1.63329
1.65887
1.61076
2.42643
1.50359
1.94665
1.04906
2.14219
2.06022
2.04747
2.44278
0.90018
2.40864
1.64932
1.67508
1.84819
2.25424
2.74762
2.21739
2.43602
1.60653
1.94259
1.44682
1.4276
2.05199
0.581567
1.77455
0.990594
1.33415
1.80245
1.05621
0.988981
1.73454
1.39716
0.991048
1.11893
1.30345
1.1657
1.77378
1.57757
1.5805
1.37039
0.848546
1.44881
2.04828
0.566041
1.08423
1.63928
0.927009
0.993202
0.570959
0.893049
0.67228
1.89086
1.52168
0.778446
1.30137
0.229859
1.72267
1.92308
1.19901
1.75968
2.24294
1.19487
0.990984
1.86603
1.42734
1.31811
1.41205
0.367804
0.98304
1.62562
0.720108
1.69658
1.79823
0.946784
1.81683
2.35923
1.08525
1.66473
1.85974
0.697511
1.29919
1.1624
1.27631
0.999732
1.73422
1.00666
1.1452
1.77247
0.658792
0.963672
1.6614
0.876485
1.78479
2.5067
0.727014
1.17455
1.3814
1.24263
1.13128
2.05695
1.79429
0.890235
1.24975
1.04238
0.538903
2.24264
1.08611
1.90204
2.17493
2.28071
1.43413
1.75355
1.20636
2.16624
1.82703
1.08453
1.02315
1.65648
0.684791
1.38224
2.31688
1.90138
1.07645
1.76014
0
0
0

SCALARS edge_force float
LOOKUP_TABLE default
0.5
0.5
0.5
0.5
0.5
0.5
0.5
0.5
0.5
0.5
0.5
0.5
0.5
0.5
0.5
0.5
0.5
0.5
0.5
0.5
0.5
0.5
0.5
0.5
0.5
0.5
0.5
0.5
0.5
0.5
0.5
0.5
0.5
0.5
0.5
0.5
0.5
0.5
0.5
0.5
0.5
0.5
0.5
0.5
0.5
0.5
0.5
0.5
0.5
0.5
0.5
0.5
0.5
0.5
0.5
0.5
0.5
0.5
0.5
0.5
0.5
0.5
0.5
0.5
0.5
0.5
0.5
0.5
0.5
0.5
0.5
0.5
0.5
0.5
0.5
0.5
0.5
0.5
0.5
0.5
0.5
0.5
0.5
0.5
0.5
0.5
0.5
0.5
0.5
0.5
0.5
0.5
0.5
0.5
0.5
0.5
0.5
0.5
0.5
0.5
0.5
0.5
0.5
0.5
0.5
0.5
0.5
0.5
0.5
0.5
0.5
0.5
0.5
0.5
0.5
0.5
0.5
0.5
0.5
0.5
0.5
0.5
0.5
0.5
0.5
0.5
0.5
0.5
0.5
0.5
0.5
0.5
0.5
2
0.5
2
0.5
2
0.5
0.5
2
0.5
2
0.5
2
0.5
0.5
2
0.5
2
0.5
2
0.5
0.5
2
0.5
2
0.5
2
0.5
0.5
2
0.5
2
0.5
2
0.5
0.5
2
0.5
2
0.5
2
0.5
2
2
2
2
2
2
2
0.5
0.5
2
0.5
0.5
0.5
0.5
0.5
0.5
0.5
0.5
0.5
0.5
0.5
0.5
0.5
0.5
0.5
0.5
0.5
0.5
0.5
0.5
0.5
0.5
0.5
0.5
0.5
0.5
0.5
0.5
0.5
0.5
0.5
0.5
0.5
0.5
0.5
0.5
0.5
0.5
0.5
0.5
0.5
0.5
0.5
0.5
0.5
0.5
0.5
0.5
0.5
0.5
0.5
2
0.5
0.5
2
0.5
0.5
0.5
0.5
0.5
0.5
0.5
0.5
0.5
0.5
0.5
0.5
0.5
0.5
2
0.5
0.5
0.5
0.5
2
0.5
0.5
0.5
0.5
0.5
0.5
0.5
0.5
0.5
2
0.5
2
0.5
0.5
0.5
2
0.5
0.5
0.5
0.5
0.5
2
0.5
2
0.5
0.5
0
0
0
