# vtk DataFile Version 2.0
2D-vertex
ASCII
DATASET UNSTRUCTURED_GRID
POINTS 1448 float
0.714692 -5.38041 0
3.16591 -5.12387 0
3.53536 -4.16951 0
2.48981 -3.12291 0
0.215806 -3.01991 0
-0.475205 -4.51869 0
4.06628 -4.12464 0
4.62225 -3.25815 0
3.6604 -1.76571 0
2.61814 -2.10167 0
1.41888 -0.867676 0
-0.279886 -0.422485 0
-1.02032 -1.70978 0
-1.17716 -1.75145 0
-1.66451 -3.42394 0
-1.13991 -4.29798 0
5.19653 -3.40259 0
5.99275 -2.50239 0
4.12615 -1.01076 0
3.8558 -1.08377 0
2.96016 -0.144418 0
1.89441 -0.253266 0
1.1691 3.3611 0
0.320126 3.32009 0
-0.466982 1.42592 0
-1.65911 0.493282 0
-1.54252 -1.40699 0
-2.83032 -1.72012 0
-3.32351 -2.75685 0
-3.00993 -3.46182 0
7.06108 -2.4659 0
7.66855 -1.72298 0
7.4587 -0.416605 0
5.21899 0.696541 0
5.67469 1.28762 0
3.29893 2.56698 0
2.50484 3.84025 0
1.62012 3.97852 0
0.642653 7.16809 0
-0.93399 7.18236 0
-0.567483 4.11382 0
-2.04714 3.1455 0
-3.07339 1.58049 0
-4.03149 1.59917 0
-4.74552 0.181477 0
-6.15019 -0.147747 0
-6.4191 -1.2119 0
-4.87803 -2.5463 0
7.86911 0.227575 0
7.50169 1.25306 0
6.74125 1.65149 0
5.94751 3.6957 0
3.57211 4.82976 0
3.47939 5.70894 0
1.99988 7.31153 0
2.51976 8.02664 0
-1.91199 8.55961 0
-1.7964 7.61968 0
-3.02413 6.251 0
-2.66175 4.09739 0
-4.29406 4.37958 0
-5.65941 3.04387 0
-7.55518 1.52964 0
-7.40429 0.993506 0
8.40627 1.69126 0
8.40619 1.69376 0
6.8605 3.70136 0
7.2575 4.92034 0
5.94514 6.1551 0
6.1334 6.84953 0
5.29359 7.85144 0
4.99005 8.38042 0
-2.63251 10.8708 0
-2.90323 10.4973 0
-6.03136 7.5055 0
-5.35544 6.73061 0
-6.06631 5.34114 0
-5.98072 5.17662 0
-8.54459 2.03185 0
-8.38762 1.6744 0
9.92381 2.05194 0
10.2094 3.02322 0
9.37812 3.98035 0
10.5228 4.44462 0
10.1611 5.96359 0
10.3225 6.68424 0
9.31212 11.2891 0
10.2143 13.3997 0
-9.54769 12.5111 0
-9.54752 12.5086 0
-9.99447 6.62456 0
-9.69541 6.10303 0
-10.0329 5.46451 0
-9.27826 4.37512 0
-10.0739 3.10739 0
-9.59912 2.12579 0
4.13337 -6.95043 0
5.32388 -6.36334 0
6.15143 -5.92837 0
8.45246 -4.25006 0
9.69403 -2.76576 0
10.9397 -0.377009 0
11.0302 -0.195389 0
11.6903 0.912437 0
12.3929 2.87658 0
12.5688 3.6792 0
12.5785 7.21592 0
12.778 13.9616 0
-13.1347 12.9722 0
-12.5738 6.56718 0
-12.4799 5.27982 0
-12.0778 2.72884 0
-11.1768 0.797314 0
-10.2966 -0.292473 0
-9.67343 -1.00998 0
-8.72839 -2.32722 0
-6.74009 -4.41987 0
-4.62197 -5.76695 0
-2.4871 -6.70194 0
0.543157 -7.42709 0
12.3653 8.70121 0
8.27177 8.7156 0
-12.8521 9.0587 0
-9.95602 9.8876 0
-0.206476 1.09315 0
1.08554 1.22702 0
-1.79568 3.12011 0
-0.998864 1.40456 0
4.54911 2.80637 0
4.92233 3.7403 0
0.308149 8.78659 0
0.109133 7.64753 0
-1.10474 5.45969 0
-2.27692 5.13956 0
5.94646 3.69796 0
5.04128 5.64986 0
4.04938 6.11996 0
4.01703 7.50059 0
1.95448 9.0682 0
1.95257 9.06657 0
-2.37345 8.75867 0
-3.92966 6.93422 0
-3.47671 6.25636 0
-4.42914 4.96672 0
1.55625 -1.50456 0
0.135887 -2.54402 0
6.62878 -0.201107 0
5.5881 -1.77949 0
5.21693 0.697945 0
3.17127 1.44371 0
-8.86506 8.27817 0
-5.85188 8.20847 0
3.16877 1.44369 0
1.71921 2.07735 0
-9.28756 4.30919 0
-7.87072 3.7176 0
-0.507087 -4.53609 0
-0.842425 -7.22706 0
14.6503 28.6777 0
17.673 27.661 0
1.51827 -5.01179 0
1.58325 -3.5575 0
2.47422 6.05951 0
1.33054 5.00745 0
8.11624 8.24256 0
5.29367 7.85395 0
8.02484 19.0913 0
-0.236641 10.7701 0
-2.44087 -3.70518 0
-3.0715 -6.47493 0
-4.15377 -0.728253 0
-5.01614 -1.92648 0
-5.28304 -5.40163 0
-4.27583 -2.92932 0
0.399581 5.45181 0
-0.496497 4.99992 0
9.3525 3.83184 0
7.79558 2.98067 0
5.82499 -3.04076 0
7.60731 -4.97338 0
2.10256 -7.44921 0
2.07495 -5.4264 0
-5.96836 -1.82752 0
-7.51548 -3.7406 0
-5.23879 1.95105 0
-6.53947 0.682844 0
7.72078 -0.27432 0
10.2367 -1.85888 0
-12.3429 4.11813 0
-9.30188 4.33516 0
12.7604 5.73663 0
10.6821 5.46721 0
-2.62651 0.651664 0
-3.5037 -0.724168 0
-9.23484 -1.57877 0
-6.51552 0.115445 0
-3.48388 3.88813 0
-4.20299 1.89038 0
-6.7162 3.91871 0
-6.2811 3.12291 0
8.21355 5.12379 0
8.40126 5.61619 0
-0.993258 10.5958 0
-0.724957 9.42862 0
12.3694 8.71041 0
9.65714 9.89265 0
9.43462 12.1682 0
1.60835 9.66869 0
7.74073 6.86896 0
8.91815 7.61891 0
-7.20804 5.42638 0
-7.55707 6.17763 0
-2.43445 12.9283 0
0.480382 12.1122 0
-9.88997 10.3876 0
-4.09641 10.3142 0
8.91671 7.62097 0
12.4046 8.2439 0
-10.6653 11.5411 0
-13.2015 11.9922 0
-12.6291 7.55884 0
-9.13158 7.82874 0
12.0823 16.683 0
9.55547 14.8556 0
7.92268 9.15605 0
5.78949 9.27166 0
-9.13163 7.82622 0
-7.25175 7.15166 0
1.87422 12.667 0
3.65009 11.0338 0
-4.37499 8.69841 0
-3.61226 8.0664 0
4.34562 10.8013 0
3.49837 9.20912 0
12.6431 10.409 0
9.84175 10.4371 0
-3.04548 12.4871 0
-4.52205 11.2826 0
-13.5493 24.402 0
-0.238717 13.7687 0
-6.43958 8.74451 0
-4.38435 10.5079 0
-12.708 8.2827 0
-9.31615 8.8667 0
5.2368 14.9471 0
7.52518 12.9464 0
-1.40187 12.5207 0
-0.832582 10.7974 0
-10.1501 15.7862 0
-13.4194 14.7537 0
18.2701 33.0887 0
1.76435 13.8065 0
-3.06215 15.2653 0
-10.0921 16.204 0
-10.6261 10.8654 0
-13.0761 10.0997 0
-6.49979 12.5522 0
-5.93717 11.4708 0
-6.31476 9.51352 0
-7.10101 10.4345 0
12.8049 12.1294 0
10.192 12.7557 0
-10.982 17.2471 0
-14.0237 17.1043 0
5.54484 10.3842 0
4.36336 10.7394 0
9.53235 14.0499 0
7.55832 13.5087 0
3.43886 12.223 0
5.95291 14.2616 0
-2.2623 14.4957 0
-0.843107 14.8111 0
13.3717 18.6324 0
10.5353 19.8879 0
-0.165871 13.7545 0
0.71462 14.4528 0
11.2866 21.6041 0
3.30474 14.3862 0
12.7074 11.2516 0
9.58553 11.6605 0
-8.34325 12.0275 0
-8.36584 11.1492 0
-9.21025 9.21653 0
-7.1039 10.0479 0
-9.75889 15.4301 0
-6.06876 14.4257 0
20.4155 37.0182 0
22.5523 37.083 0
1.29778 12.0274 0
2.14764 10.4844 0
-3.98978 14.1634 0
-3.84973 12.8658 0
-13.2485 14.0223 0
-9.9602 14.7281 0
-0.663538 16.4437 0
-0.67623 16.4343 0
7.15759 11.2951 0
6.69851 12.2117 0
8.14203 9.6648 0
7.0398 11.0326 0
-10.9159 16.7048 0
-13.6499 15.512 0
-2.84783 15.2688 0
-1.86489 16.7777 0
1.00446 15.6537 0
2.50004 15.666 0
5.67438 12.3573 0
5.35048 13.0282 0
-7.28324 15.7212 0
-7.03314 16.2475 0
-8.95787 13.2963 0
-6.28393 13.5265 0
3.28728 14.3393 0
4.12253 13.0784 0
-10.3319 19.2538 0
-3.93543 16.4898 0
13.8668 19.534 0
11.3876 20.7489 0
-16.61 23.2858 0
-14.0453 23.5448 0
7.57971 15.293 0
6.8075 14.3589 0
12.0701 16.7713 0
8.13656 18.1509 0
3.18313 17.0258 0
4.88999 17.6391 0
0.552218 18.502 0
2.57647 17.4808 0
-1.14759 24.7936 0
-3.75192 23.2391 0
-3.24269 21.5558 0
-4.45254 18.4535 0
-6.10821 13.2867 0
-4.04364 12.7462 0
-9.53832 18.1897 0
-8.02839 17.151 0
6.79056 22.4229 0
6.16377 19.4599 0
-13.1428 13.3242 0
-9.27875 13.7707 0
-9.21978 13.9227 0
-7.02321 14.9432 0
-0.662768 18.7752 0
-0.408134 18.4396 0
14.194 28.0603 0
1.69717 22.1537 0
16.5957 24.4448 0
14.3928 25.1062 0
-15.0076 18.9024 0
-12.1849 19.7687 0
-5.28631 14.8023 0
-5.13184 16.158 0
6.98555 16.1908 0
5.87467 16.1837 0
0.71335 16.1213 0
1.31527 17.2125 0
9.73664 14.5125 0
12.617 14.9455 0
12.0671 16.7379 0
7.57023 15.6371 0
-11.849 20.784 0
-4.43815 18.9252 0
-2.42051 17.8471 0
-3.55447 17.6958 0
3.02115 22.4402 0
3.62027 21.7255 0
-5.675 16.6146 0
-5.57451 17.853 0
3.20137 16.3982 0
5.24171 15.5332 0
-2.10246 21.4747 0
-0.587539 22.9499 0
1.91752 27.9806 0
11.8907 28.5291 0
-19.224 39.0428 0
-20.802 38.442 0
-17.914 50.761 0
-2.72929 24.2909 0
-14.1407 17.3126 0
-11.9645 19.4245 0
-1.96481 18.6887 0
-3.50512 19.6284 0
-7.24779 19.3822 0
-5.79165 19.7962 0
12.3893 24.4575 0
11.2309 27.6518 0
4.10269 19.9523 0
5.62551 20.2191 0
10.4953 20.0426 0
7.54666 21.1617 0
12.3404 17.17 0
10.3239 19.6422 0
-13.5982 22.7789 0
-3.83995 20.8889 0
15.6484 22.7109 0
13.9233 24.3915 0
1.63681 19.5354 0
2.79208 18.77 0
-15.7106 20.3138 0
-13.6027 21.7055 0
-1.99807 26.4383 0
3.52583 23.735 0
-0.064666 20.2895 0
1.3078 20.6269 0
-8.01918 17.3213 0
-6.68958 18.3193 0
7.23833 17.3834 0
5.72797 18.2541 0
-1.61333 20.6832 0
-2.36707 19.4293 0
12.0631 16.7498 0
7.39897 16.9049 0
-2.80892 23.8504 0
-1.5671 22.7207 0
-5.73945 20.4867 0
-4.78374 21.1584 0
-4.60552 23.3909 0
-5.22331 22.5019 0
-14.0298 17.1124 0
-10.2351 18.8378 0
4.70163 23.7296 0
5.29216 22.486 0
-0.342311 29.1052 0
16.7704 58.3292 0
-8.03758 20.2796 0
-7.7756 21.4335 0
5.9522 65.3679 0
5.91903 67.0924 0
-10.2826 26.3206 0
-8.34885 28.8556 0
8.6462 19.5018 0
7.40415 20.8329 0
14.3439 20.3769 0
11.7095 21.8837 0
4.95666 21.8784 0
5.81208 20.6463 0
1.69975 20.2881 0
3.30879 20.7908 0
2.94861 24.3719 0
4.99471 28.0335 0
3.88193 19.1455 0
5.00509 18.0481 0
1.27707 22.5827 0
1.61148 23.9524 0
12.1138 16.8651 0
8.62253 19.3866 0
-7.1519 34.5263 0
-4.88017 30.8098 0
-14.1189 25.8323 0
-16.9721 25.2336 0
-0.477401 20.791 0
0.0454838 22.2809 0
-7.22356 21.6234 0
-6.92268 22.5088 0
-9.55009 18.5548 0
-7.24804 19.3797 0
8.12197 24.6576 0
8.99208 22.7854 0
-16.3731 22.0816 0
-13.854 22.3826 0
-7.36637 23.1912 0
-7.38484 24.8062 0
4.96784 32.2042 0
8.63982 30.453 0
-14.5795 27.6632 0
-10.0891 27.3605 0
8.01198 25.2502 0
5.41622 26.8366 0
2.2268 27.6817 0
1.13776 25.7969 0
-4.8797 25.1754 0
-4.72472 25.2872 0
20.2158 35.9438 0
22.1262 35.0829 0
-0.310666 24.0403 0
0.993272 24.488 0
-9.38134 22.1654 0
-9.53628 22.5568 0
6.81247 36.7369 0
12.8056 45.4184 0
-3.38361 25.0609 0
-2.85158 26.2782 0
14.1773 25.6484 0
11.8255 26.2439 0
-19.2923 43.2713 0
-21.3378 42.8628 0
-17.9983 41.1733 0
-8.63763 33.7231 0
9.24123 22.1478 0
8.76695 21.2855 0
-10.5821 24.4595 0
-9.0039 23.2722 0
12.1219 24.0575 0
9.72163 24.0901 0
-1.88816 36.2013 0
-0.563997 30.7224 0
-9.66081 20.129 0
-10.1852 21.0558 0
17.0436 25.7379 0
14.7084 26.2998 0
14.7723 21.0612 0
12.4688 22.8465 0
17.0019 31.336 0
13.2794 32.2427 0
-1.91601 29.0746 0
-1.58992 27.4524 0
-16.3288 32.4247 0
-18.3816 31.3999 0
3.09292 25.4615 0
1.98362 26.2056 0
7.74442 29.573 0
6.74191 26.508 0
5.29204 24.3092 0
4.41172 25.5082 0
-6.28591 28.1863 0
-5.72156 28.9065 0
7.29521 23.0996 0
7.10377 23.6996 0
5.93711 29.7317 0
6.60569 32.2732 0
-14.0833 25.9447 0
-10.948 26.0672 0
18.5456 32.4084 0
20.7658 31.7273 0
-8.88465 25.6331 0
-6.1119 27.5535 0
-14.7914 34.9321 0
-10.8895 32.1863 0
3.43747 31.5958 0
3.02135 31.8888 0
-16.7922 24.3385 0
-13.7497 24.7203 0
-17.2332 26.4653 0
-14.9103 26.8799 0
[...]
CELL_DATA 725
SCALARS cell_division_count float
LOOKUP_TABLE default
1
0
1
0
0
0
1
0
0
1
1
1
1
1
1
1
0
1
1
1
1
1
1
0
1
1
1
1
1
1
1
1
2
4
3
1
1
0
0
1
1
0
0
0
1
2
3
0
1
0
0
1
1
1
1
1
0
0
3
0
1
2
3
1
1
1
1
1
1
1
2
2
1
1
1
1
2
1
1
1
3
1
1
2
9
1
1
1
1
1
1
1
1
1
1
1
1
1
1
1
1
1
2
3
5
2
1
3
5
2
2
2
5
3
2
4
2
3
5
5
6
3
3
6
3
4
6
9
3
5
4
4
8
5
6
6
5
4
5
14
5
5
5
7
5
4
6
4
10
5
3
4
6
6
6
7
6
6
11
7
8
7
6
7
8
18
11
6
8
9
4
7
8
13
6
7
7
8
8
3
6
12
10
11
9
7
11
13
9
16
8
11
10
11
9
9
5
14
6
10
8
13
10
10
8
11
6
10
11
14
8
11
13
11
9
12
9
8
9
11
13
9
11
6
16
13
11
12
11
13
8
13
13
12
15
14
10
8
12
13
14
11
12
13
17
9
14
15
15
12
7
9
14
15
11
14
14
14
13
13
12
12
8
12
16
14
8
9
17
14
15
17
14
14
13
11
14
14
14
14
14
15
14
8
15
9
9
14
13
13
14
12
12
10
12
12
14
15
7
13
13
15
11
14
14
14
8
13
15
12
16
15
15
15
13
14
15
16
12
15
19
10
11
14
16
14
16
17
14
15
12
7
13
13
19
14
15
13
16
16
13
16
15
12
15
14
17
13
10
9
14
18
13
15
14
15
11
17
15
15
15
15
14
13
13
15
14
20
16
15
17
15
15
15
17
8
16
15
15
16
13
14
10
19
16
17
12
16
18
14
18
16
15
9
16
15
14
14
21
16
19
14
14
15
22
18
14
17
8
11
11
14
15
12
17
15
15
16
17
15
16
15
16
16
16
20
16
15
15
17
20
16
20
17
17
18
15
19
14
16
20
11
11
13
13
16
17
18
20
19
17
17
17
17
17
15
17
16
17
16
19
12
11
16
17
17
20
13
16
19
15
16
15
18
20
17
20
15
19
21
17
18
18
20
20
14
14
17
16
16
16
17
19
16
18
15
17
17
17
13
17
18
22
17
18
17
20
21
17
16
21
20
20
19
20
16
11
22
17
18
17
15
19
17
16
18
20
17
17
18
12
19
13
20
17
18
17
19
18
21
18
17
13
17
14
18
22
19
17
19
22
21
19
21
16
17
21
20
12
16
14
16
20
10
19
16
19
17
21
20
17
20
19
18
21
20
18
21
18
17
12
14
16
20
20
18
20
21
21
18
19
19
18
17
17
16
18
19
19
21
20
11
19
19
14
15
22
20
23
16
19
20
21
14
19
21
20
22
19
18
20
19
21
21
17
13
19
20
21
17
21
18
21
21
20
21
21
21
13
18
20
13
20
18
20
20
20
17
13
18
23
21
21
21
21
19
20
17
19
21
22
22
18
22
16
18
18
21
21
21
21
14
20
19
21
19
20
17
21
14
20
21
20
21
20
14
20
20
20
20
21
18
22
15
20
22
18
21
21
20
18
21
18
18
18
20
18
20
22
21
19
15
23
22
21
23
22
20
18
19
14
21
20
22
19
SCALARS cell_time float
LOOKUP_TABLE default
2801
2.22229e+13
2821
4.48239e+13
2.67348e+11
1.25633e+10
2831
2.68224e+09
9.19769e+11
2821
2821
2811
2781
2831
2751
2791
1.22881e+06
2831
2801
2831
2831
2731
2771
26613.4
2831
2831
2831
2831
2831
2721
2781
2721
2681
2421
2571
2671
2811
1.00108e+18
2.94533e+15
2781
2771
107913
4175.76
2887.34
2761
2661
2461
2878.01
2771
5529.01
3146.18
2751
2791
2801
2811
2781
1.12104e+13
23996.3
2251
4867.96
2781
2701
2521
2831
2831
2831
2831
2831
2831
2831
2711
2591
2831
2821
2821
2821
2651
2811
2811
2811
1951
2801
2801
2661
1581
2801
2791
2791
2781
2781
2781
2781
2781
2771
2771
2771
2761
2751
2751
2731
2721
2721
2711
2581
2401
2681
2671
2521
2301
2661
2661
2661
1951
2241
2651
2271
2591
2581
2311
2271
2161
2541
2521
2151
2521
2241
2251
1941
2461
2311
2441
2441
1221
2251
2141
2171
2371
2151
2341
1171
2311
2311
2301
2001
1431
2271
2041
2021
1671
2251
2241
2241
2241
2231
2171
1971
2161
2151
1511
1581
1501
1961
1551
1891
1961
491
1641
2041
2031
1581
2021
2001
2001
851
1361
1831
1971
1691
1961
1951
1681
1371
1821
1581
1901
1891
1521
1311
1001
221
1641
1691
1811
1401
1581
1381
1781
1171
1761
1761
1161
1181
1731
1701
1691
1691
1681
1671
1651
1191
1641
1631
911
1621
841
1071
1581
1361
1581
1581
1301
1581
1571
1551
731
731
1521
1521
1511
1291
1501
1051
1041
1011
1011
1211
1441
661
1421
1411
581
1411
1031
141
251
1381
1171
1021
491
1371
1061
1151
731
1051
571
1051
1051
1051
1121
1291
1111
1111
741
1071
691
791
1221
1221
511
1211
641
271
1191
991
1181
501
1181
1171
1171
521
1171
691
1171
1161
1031
971
1151
1031
1031
1121
671
1111
1101
1091
1071
1071
691
921
1061
1061
1051
1051
661
1051
1051
1051
861
1041
771
1031
491
621
1031
771
1031
851
1021
741
1011
1011
211
281
1001
831
501
991
371
361
821
491
341
961
161
951
301
931
921
911
721
451
901
671
891
881
701
881
521
861
861
701
861
231
851
651
851
591
211
501
661
831
491
681
821
551
461
441
791
191
651
771
311
771
641
771
441
741
741
741
741
731
731
731
731
211
611
141
251
721
261
711
221
461
701
701
691
691
691
361
151
301
111
681
81
681
51
451
671
521
661
371
661
661
661
511
401
651
521
651
521
641
641
641
401
501
631
11
281
621
621
471
131
611
61
341
351
21
591
181
581
581
71
571
571
431
551
451
271
421
81
221
361
111
521
331
521
521
521
291
511
361
211
511
501
501
501
341
241
211
501
391
491
491
491
91
131
341
21
51
81
71
361
11
341
141
51
211
291
171
461
251
451
301
321
451
151
441
441
341
231
431
261
421
1
421
421
131
71
121
401
401
71
191
251
181
161
371
371
51
361
241
361
201
241
361
361
21
71
361
351
351
351
241
141
21
341
341
341
11
341
61
101
341
131
331
71
91
21
321
311
201
101
181
301
91
301
301
81
121
291
291
291
291
71
281
81
281
281
271
111
151
271
151
271
261
151
141
61
91
141
251
251
251
251
251
151
31
81
21
121
241
241
241
231
81
231
221
221
21
221
91
71
211
211
211
11
21
111
41
21
101
201
201
81
81
191
111
191
21
181
51
71
1
181
171
171
161
161
161
51
161
151
151
151
31
151
51
151
21
141
31
141
141
141
141
141
131
131
131
131
31
21
121
121
11
121
121
11
111
111
111
111
21
101
101
101
91
91
91
91
91
91
81
81
81
81
81
81
81
81
81
71
71
71
71
71
71
71
71
71
61
61
61
51
51
51
51
51
51
51
41
31
31
31
31
21
21
21
21
21
21
21
21
21
21
21
21
21
11
11
11
11
11
11
1
1
SCALARS cell_area float
LOOKUP_TABLE default
3.24159
3.29961
3.29286
3.35561
3.35086
3.343
3.32587
3.37385
3.34822
3.28114
3.33595
3.2815
3.38547
3.31832
3.30526
3.32937
3.39786
3.28788
3.34534
3.39664
3.39107
3.33858
3.33856
3.37094
3.35712
3.37452
3.43862
3.4007
3.39016
3.32843
3.24623
3.29579
3.35026
3.33572
3.44283
3.24881
3.34431
3.25246
3.26092
3.24839
3.2365
3.27756
3.26122
3.27792
3.21921
3.28325
3.25444
3.26224
3.25844
3.24772
3.26745
3.27306
3.2163
3.257
3.24462
3.24203
3.20931
3.21642
3.26379
3.19554
3.24602
3.30496
3.26757
3.27964
3.33637
3.28401
3.39762
3.35044
3.27872
3.35522
3.45077
3.34983
3.35577
3.28618
3.24772
3.27388
3.3403
3.35036
3.23061
3.22196
3.2169
3.25825
3.33395
3.33015
3.36861
3.22247
3.29609
3.25212
3.36868
3.2865
3.22432
3.20355
3.2157
3.30311
3.25121
3.24408
3.25786
3.32335
3.26282
3.29932
3.2889
3.26243
3.40041
3.23053
3.29122
3.23913
3.32722
3.38256
3.28985
3.27801
3.25663
3.27096
3.27097
3.29179
3.24454
3.31469
3.35512
3.40434
3.25314
3.42243
3.30167
3.34729
3.27049
3.34678
3.40488
3.2576
3.43967
3.3954
3.21416
3.27845
3.33339
3.20455
3.27971
3.36952
3.31226
3.35299
3.36485
3.25755
3.36332
3.30626
3.24737
3.27931
3.31413
3.27237
3.23536
3.34642
3.39977
3.26684
3.38021
3.31184
3.29858
3.22903
3.3717
3.35988
3.38208
3.38541
3.33703
3.30724
3.35399
3.26708
3.25389
3.40939
3.28194
3.31834
3.36783
3.3703
3.37014
3.32725
3.29932
3.36557
3.26899
3.32396
3.43128
3.29354
3.26897
3.22628
3.35994
3.36596
3.39209
3.23682
3.29577
3.30895
3.43726
3.39108
3.3894
3.31612
3.38782
3.40653
3.30251
3.32188
3.27158
3.41182
3.40378
3.2832
3.35526
3.26913
3.23036
3.28804
3.23404
3.34245
3.25498
3.34579
3.42145
3.35255
3.29979
3.39271
3.28643
3.35109
3.38625
3.36931
3.30609
3.39387
3.40349
3.35832
3.26636
3.32001
3.34153
3.26967
3.37354
3.37183
3.44997
3.35152
3.40355
3.27367
3.38863
3.28703
3.39982
3.33178
3.30698
3.37242
3.21485
3.36175
3.43866
3.2625
3.35114
3.41791
3.43184
3.27682
3.39355
3.38739
3.29269
3.37541
3.2658
3.33106
3.34216
3.33859
3.38347
3.29567
3.32214
3.31746
3.28604
3.24272
3.33339
3.38175
3.30782
3.39532
3.32191
3.3542
3.40954
3.34119
3.34979
3.30586
3.23155
3.36861
3.38292
3.41332
3.27011
3.2793
3.39737
3.37632
3.38419
3.3292
3.38009
3.39184
3.38434
3.31556
3.34489
3.33664
3.35484
3.29275
3.26196
3.35574
3.37101
3.25877
3.38123
3.24621
3.29203
3.29096
3.355
3.34994
3.3668
3.30785
3.3716
3.28311
3.39076
3.3565
3.37544
3.39947
3.30302
3.39774
3.3363
3.38511
3.33975
3.34971
3.35089
3.33021
3.25287
3.40286
3.38828
3.30956
3.40582
3.3318
3.31886
3.33689
3.39964
3.31603
3.40109
3.3772
3.35615
3.35217
3.32196
3.32416
3.28864
3.3453
3.37787
3.35536
3.32582
3.29356
3.37586
3.322
3.3063
3.27495
3.30038
3.33827
3.34377
3.3796
3.3538
3.29961
3.38143
3.3767
3.34793
3.31407
3.27956
3.29578
3.3249
3.35572
3.33728
3.3462
3.24724
3.33947
3.42685
3.36651
3.3351
3.3506
3.3178
3.35943
3.28311
3.36491
3.35464
3.3538
3.31368
3.318
3.35873
3.30805
3.30542
3.29012
3.34432
3.31292
3.38882
3.34628
3.37247
3.32065
3.40629
3.35641
3.33618
3.26925
3.36958
3.30867
3.38059
3.36762
3.30299
3.30353
3.31925
3.35388
3.34583
3.30085
3.31124
3.36814
3.38558
3.30831
3.37697
3.32453
3.33195
3.30776
3.28925
3.37166
3.31124
3.30383
3.37072
3.31458
3.32445
3.31158
3.34209
3.38035
3.33173
3.33433
3.34277
3.30065
3.28427
3.30004
3.30302
3.36236
3.36868
3.30057
3.3567
3.31527
3.32579
3.35209
3.34884
3.35973
3.31301
3.37018
3.35872
3.4306
3.37508
3.3692
3.36779
3.35697
3.38752
3.37424
3.32973
3.36616
3.33242
3.33128
3.33234
3.30989
3.30789
3.36137
3.3223
3.32553
3.29803
3.28959
3.2616
3.30673
3.30391
3.31069
3.34995
3.36324
3.31215
3.39069
3.33815
3.31671
3.29751
3.37462
3.38054
3.31034
3.32325
3.32906
3.361
3.32499
3.34798
3.28296
3.31293
3.38735
3.35257
3.40367
3.32967
3.31
3.32314
3.3869
3.30448
3.38558
3.32904
3.33984
3.30735
3.35298
3.34777
3.31711
3.3566
3.37077
3.35297
3.28645
3.35209
3.38345
3.2899
3.33505
3.31435
3.32413
3.29646
3.32241
3.39256
3.3204
3.36216
3.31354
3.34281
3.35485
3.32516
3.3205
3.31994
3.30968
3.32393
3.3442
3.37321
3.34907
3.36185
3.32515
3.32235
3.3432
3.38427
3.37366
3.32308
3.33288
3.31865
3.32534
3.3299
3.35043
3.25623
3.36453
3.29122
3.35083
3.34594
3.30794
3.42457
3.38458
3.38334
3.34837
3.32849
3.3356
3.30674
3.3184
3.31612
3.32446
3.34735
3.33153
3.32969
3.34783
3.34633
3.3325
3.36052
3.34922
3.36695
3.34541
3.27936
3.3649
3.3592
3.28975
3.30951
3.37849
3.3809
3.3675
3.41291
3.26971
3.40446
3.32613
3.366
3.34801
3.33855
3.30712
3.31602
3.34536
3.30946
3.32272
3.28742
3.24486
3.36067
3.3391
3.30848
3.35168
3.32857
3.29387
3.33449
3.32849
3.42255
3.3483
3.38153
3.32094
3.34408
3.33776
3.34559
3.26523
3.31076
3.2543
3.29903
3.36988
3.36085
3.32067
3.33398
3.29704
3.29531
3.35945
3.35631
3.31908
3.32983
3.36062
3.33065
3.28618
3.30417
3.28009
3.35665
3.29358
3.28387
3.26166
3.35221
3.36418
3.31376
3.34441
3.34008
3.35607
3.3484
3.32099
3.31474
3.32527
3.35075
3.31807
3.30831
3.30774
3.33241
3.34727
3.30485
3.32386
3.32423
3.35905
3.30933
3.33414
3.34658
3.31342
3.28691
3.3271
3.32731
3.30674
3.32879
3.28998
3.33954
3.32667
3.32495
3.33594
3.34118
3.33817
3.31884
3.31176
3.36175
3.31653
3.34043
3.34896
3.35959
3.37494
3.33973
3.34056
3.31297
3.32373
3.2952
3.34387
3.27024
3.32877
3.33862
3.38295
3.3339
3.32477
3.32851
3.33176
3.3195
3.36761
3.38108
3.34096
3.32276
3.34579
3.30776
3.35338
3.32993
3.27901
3.32319
3.32776
3.36155
3.26592
3.37534
3.36542
3.32316
3.33269
3.30812
3.30925
3.26715
3.35852
3.32252
3.36166
3.32505
3.36756
3.32112
3.36598
3.32106
3.29725
3.32824
3.31966
3.32248
3.30193
3.31017
3.28997
3.28063
3.32736
3.30087
3.29949
3.32188
3.29307
3.28993
3.33098
3.30688
3.29437
3.25313
3.33016
3.30884
3.32914
3.32133
3.35422
3.34495
3.34708
3.29226
3.32603
3.32653
3.32655
3.27018
3.29897
3.32408
3.29422
3.30779
486
351
SCALARS cell_perimeter float
LOOKUP_TABLE default
6.92871
6.94157
6.96484
7.19488
7.12639
6.82036
7.07984
7.65098
6.93378
6.92823
7.38916
7.0024
6.7983
7.24565
7.04336
6.79319
7.17405
6.96956
6.92234
6.97513
6.94312
7.27238
7.24041
7.58056
7.59961
6.95826
7.96493
7.15103
6.90445
7.06904
6.94875
7.04953
8.17844
7.03434
7.1272
7.33729
7.89271
7.51829
7.8246
7.63683
8.26639
8.65873
8.18532
7.75868
7.38139
9.60707
8.02599
7.64816
8.04412
7.6534
8.12018
8.43602
7.78174
8.06841
7.67107
7.21462
7.43548
7.38891
8.80216
7.32361
7.72508
9.71053
8.61211
7.03627
7.15212
7.24209
6.89991
7.09107
7.18502
6.86488
7.78079
7.07395
7.17065
7.07855
7.24075
7.21763
7.7838
7.27233
6.9361
7.8701
8.23686
6.79009
7.0226
7.85049
7.50181
7.97689
6.82222
7.97715
7.08998
6.99721
7.7956
7.31324
7.65035
7.13024
7.92964
7.96831
7.36197
6.94339
8.22
7.18942
7.16971
6.94269
7.11235
8.05563
7.2172
7.03151
6.85372
7.47814
7.31531
8.59293
8.65561
8.563
10.1728
7.21561
7.23819
7.05658
6.91643
7.37661
8.25945
7.14909
7.64109
7.28863
8.94187
7.16734
7.26686
8.58981
7.25089
7.13302
7.71615
7.02531
7.28398
7.78831
8.25146
7.32104
7.31043
7.05631
7.0517
8.18902
6.94901
7.32669
8.20683
6.912
7.57351
7.5593
7.37102
7.23154
7.20278
9.21602
7.04316
7.33838
7.30915
8.20978
7.09346
7.13895
6.81571
6.83802
8.01157
6.99219
7.5447
8.13256
7.70046
6.81752
10.1923
7.32254
7.13325
6.92534
6.99856
7.15289
7.42558
7.12555
9.41319
7.85196
7.15367
7.42265
7.49435
8.20442
6.99583
7.11789
6.98214
7.98231
10.9394
6.97329
6.91455
7.05191
6.90594
7.33977
6.93365
6.91045
7.42633
7.12319
9.49864
7.02924
7.27746
7.3957
6.91725
7.22849
8.40569
7.32938
7.53937
6.97878
8.41763
7.02845
7.19654
7.03523
7.05124
6.89132
10.5439
7.06044
6.9242
6.9213
10.0544
6.91399
7.05121
7.03824
7.33111
7.03122
7.70189
8.24614
6.99709
6.97084
6.93328
7.02701
7.01565
9.67805
7.3666
8.2501
7.08599
7.08571
7.4214
7.08932
7.673
7.13879
7.10594
7.34743
7.11568
6.95781
6.92275
7.45039
6.92058
7.04974
6.87263
6.93762
7.55441
7.13277
7.00136
6.93558
6.8325
7.17237
6.86577
7.01318
8.00317
8.2032
6.82204
7.08246
7.36228
7.34014
7.12133
7.32676
6.88426
7.10756
7.31695
7.64278
7.47818
7.15699
7.13419
6.94003
8.07892
7.90045
6.9005
7.11151
7.02623
7.02208
6.90345
7.59504
6.96332
7.43335
7.00825
7.42419
7.46879
6.86643
7.44346
6.9402
6.96302
8.59249
6.79795
7.30802
8.4897
7.4373
7.18754
7.06212
6.93586
7.6754
7.29046
7.63203
7.10217
6.96204
7.04111
7.22765
8.40963
7.00493
7.10899
6.97743
9.27065
7.2668
7.07209
7.11205
8.02547
7.08327
7.08344
7.67933
6.94874
7.46945
7.00719
6.82517
7.28932
7.14305
6.98357
7.13101
6.81718
7.09498
6.93925
7.7835
7.75535
7.10564
6.9155
7.18637
6.99223
7.22582
6.92555
7.02369
7.25549
7.58883
7.21906
7.03252
7.00728
7.02683
7.64227
7.36072
6.96437
7.30463
7.08384
7.04547
7.29198
8.5178
7.0035
7.18148
7.05415
6.9496
7.55176
9.72692
7.47345
6.84895
7.41357
7.11826
7.19256
6.94858
7.08178
6.87894
6.94561
6.96103
6.9604
6.96438
6.92325
7.37372
7.35134
7.14558
7.1388
6.86753
7.11053
7.01277
6.95009
7.0868
6.94857
7.0991
6.88678
7.7145
7.94717
7.07099
7.37309
7.00257
8.86107
6.85173
7.59619
7.01307
6.86824
6.89727
7.21534
7.07613
6.81972
7.04618
6.888
7.03077
6.86481
9.10409
6.99976
7.01367
7.11096
7.17392
6.80183
6.91551
6.88097
7.0253
7.44976
6.94046
6.83282
6.98755
6.90104
7.16843
7.64671
7.39079
8.65335
7.01608
6.97711
7.78949
6.94517
6.9657
7.22152
6.8748
7.1057
6.99275
7.06193
6.88791
6.98285
7.19468
6.95038
7.31208
7.07211
7.40111
6.84655
6.9082
7.11838
6.96626
7.34263
6.89089
6.90766
6.96955
7.04281
7.12354
6.83861
7.06908
6.85228
7.18541
7.32636
7.84509
7.23577
6.83158
6.89219
7.16175
6.97669
6.95966
6.96291
6.81806
6.94024
6.84957
7.03948
7.06245
7.10412
7.06901
7.00753
6.98915
6.9148
7.4891
7.49899
6.84288
6.95037
6.89429
6.95177
7.15622
7.45405
7.0073
6.93998
6.87188
7.2675
7.37266
6.87023
6.83687
7.21424
7.22197
7.0526
6.82903
6.8695
7.26192
6.89988
6.92448
6.9644
7.08105
7.48341
7.08756
7.03507
6.9048
7.11008
7.18709
6.8388
6.98242
7.15719
7.82012
7.00856
7.00749
6.88374
8.02399
7.05273
6.98285
7.05247
6.91687
7.05046
6.89932
7.13842
6.94632
7.01548
7.04837
6.8174
6.92784
6.96675
6.87966
7.00538
6.91667
7.36706
6.90406
7.26168
6.9457
7.0943
7.16929
6.94614
7.03913
7.45479
6.99851
6.98385
7.03123
6.97497
7.05682
7.15426
6.97689
7.52879
6.81224
6.90359
6.91003
7.005
6.98365
7.64361
7.06394
6.95217
6.94693
7.43513
6.96678
7.44333
7.11802
7.04587
6.98572
7.06209
7.22538
6.81173
6.94353
7.09041
6.85817
6.83391
7.03498
6.84318
6.97383
7.30269
6.9186
7.39831
6.93721
7.02391
7.33113
7.26421
6.85113
7.12753
6.88795
7.01194
6.99856
6.86309
7.14112
7.07327
6.92025
6.91644
6.90176
7.35327
6.86491
6.90972
6.94377
7.27205
7.31
6.93429
7.10395
6.90669
6.88261
7.01611
7.11323
7.00986
6.91352
7.01095
7.12433
6.86565
6.86241
7.14593
7.12258
6.94349
6.91745
6.93881
6.84229
6.99756
7.35667
7.18933
6.98635
7.11065
7.23398
7.28616
7.03681
6.90635
7.11175
6.96742
7.06898
6.73234
7.13622
6.90668
7.02706
6.97372
7.31915
7.26457
6.98105
6.9823
6.86604
6.90904
6.87656
7.01807
7.30107
7.04716
6.82959
6.85727
7.09998
6.99095
6.91558
6.98671
6.80409
6.84823
6.88149
6.90037
6.91627
7.12591
7.23523
7.08249
7.43727
6.89224
6.93269
6.77398
6.79485
6.92841
6.83698
7.33269
6.96324
7.00924
6.91823
6.9464
6.8966
6.86774
6.91775
6.98138
6.82592
6.8351
7.07403
7.10036
6.78758
7.07523
7.0732
7.16392
6.92975
7.00781
6.79529
6.88565
7.0597
7.28669
7.21708
6.96003
6.94634
6.99147
7.4172
6.84514
6.93345
6.90801
7.3285
6.89133
7.01885
7.10863
6.81007
6.97154
7.33854
6.80433
6.85142
6.97028
7.14407
6.91689
7.22661
6.87726
7.20715
7.08251
7.02097
6.99759
6.8978
6.94642
6.98803
6.93594
6.93633
7.02194
7.10478
6.9624
7.06787
7.28632
6.93994
7.03779
6.99408
6.91062
7.35535
6.92821
7.35988
7.08269
6.96093
6.86126
6.81108
7.1423
6.99785
7.18029
6.93628
6.97816
354
425
SCALARS cell_frequency_modifier float
LOOKUP_TABLE default
3.59405e+18
8.47782e+17
4.99154e+17
4.66881e+15
1.60243e+15
5.41551e+14
2.77424e+13
9.87532e+13
2.6743e+15
1.342e+17
1.32862e+14
9.0239e+15
7.31407e+11
2.97016e+13
4.40036e+16
2.05807e+15
4.01033e+13
4.91235e+14
7.39357e+11
1.68768e+10
7.22196e+11
8.80135e+12
6.33561e+13
5.44121e+12
6.16961e+11
6.4825e+10
1.09118e+10
2.71658e+10
3.51698e+11
2.92052e+12
1.20304e+15
4.24546e+13
4.43492e+10
9.14403e+09
6.08697e+08
6.45975e+13
1.06662e+12
1.28926e+19
5.28095e+18
1.29433e+18
4.54981e+16
1.33222e+16
6.05594e+15
4.50182e+14
1.29508e+14
4.01757e+12
7.584e+11
3.8937e+13
1.46225e+14
5.81673e+15
1.24722e+16
2.85544e+16
2.03312e+18
7.65806e+18
10000
10000
6.02256e+17
2.06347e+15
9.98891e+09
2.12292e+15
6.70525e+17
1.80365e+12
1.94201e+12
2.00349e+16
2.6559e+13
1.31102e+15
1.38e+10
1.48397e+11
1.30447e+14
9.32268e+10
2.84037e+09
8.62394e+09
2.01647e+11
1.18883e+17
4.5656e+16
3.38672e+15
3.94101e+10
6.69688e+12
8.3415e+14
10000
7.73843e+09
4.07727e+18
2.61965e+11
2.80897e+10
782686
7.04377e+18
6.95954e+16
2.70936e+18
1.10664e+11
2.80312e+14
3.76574e+18
10000
3.25346e+17
2.94929e+15
1.1861e+17
4.13543e+14
3.16404e+13
2.13548e+14
7.68505e+16
8.5924e+14
1.27001e+15
9.83127e+13
3.01016e+09
9.12241e+11
4.69572e+10
2.25641e+13
2.92606e+11
3.39206e+08
6.73486e+11
9.00527e+12
9.79245e+10
1.09185e+13
4.73872e+09
8.79057e+11
1.80027e+13
5.34374e+09
3.47209e+10
2.11704e+09
3.15327e+11
6.97626e+07
3.86431e+09
8.66446e+09
4.60886e+12
1.2898e+08
5.0612e+08
4.9343e+09
2.36096e+07
8.28604e+06
2.83833e+11
1.96914e+11
4.02213e+09
5.02085e+10
5.46365e+06
9.64368e+08
6.73795e+08
5.88876e+08
1.18181e+08
2.17097e+08
1.95289e+08
3.17198e+07
1.29393e+11
2.18269e+11
6.21989e+10
9.94733e+09
12891.5
1.84756e+09
8.97461e+07
2.31635e+10
44408.4
6.37482e+09
4.58584e+11
2.46759e+09
2.23148e+07
5.26375e+07
1.46948e+08
1.9881e+07
4.66639e+08
4.36056e+10
1.39156e+06
9.93472e+07
2.43597e+07
2.20974e+07
8.05191e+08
6.15945e+07
5.52706e+06
10.9284
150396
1.10813e+09
1.65963e+09
237143
4.54693e+10
3.14314e+08
3.265e+06
531642
4.2426e+06
4.34323e+08
3.02312e+07
6.25867e+06
8.73555e+06
1.91816e+10
2.89624e+09
1.78053e+07
1.45028e+06
219677
5.04696e+06
1.88014e+08
159284
16400.5
1283.96
5.09676
6.20566e+08
641102
1.29297e+06
4.59138e+06
1.59835e+06
7.78832e+07
4.4067e+08
3.51295e+07
9.78714e+06
4.3649e+06
1.04246e+08
12374.3
785825
7.60171e+06
5.83492e+08
368812
1.5875e+09
149135
539642
39928.4
9.50445e+08
85036
565.715
567203
164.729
36446.4
949272
5.11955e+07
355171
820236
19969.7
4.24099e+06
56584.2
5.63484e+08
149.953
122456
194774
480269
6.37732e+08
65168.3
5.62162e+07
75924.6
1417.87
1.63255e+06
12834.6
4712.02
26048.6
22259.4
52162.4
106722
11239.3
15821.3
2.20004e+06
1.4891
16.1458
276629
53680.1
5.65221e+06
258.19
2.20286e+06
1.87846e+06
3.12822e+07
374.272
1024.91
4663.31
5490.01
9371.94
33480.7
2590.88
92093.2
1258.86
3.2299e+06
129935
9824.33
123.281
197.688
1.04946e+07
2.85921e+06
8.83613
2805.51
30.0024
5.64924
16168.6
1031.42
17343.7
9.25142
32560.2
110999
266332
147.979
1.49938e+07
230.296
4905.41
1.81866e+08
2047.9
145.455
1.43863e+07
783361
714.32
13962.9
389.276
2.46266e+06
1984.04
1.28851e+06
3079.59
15244.5
725.364
555.547
1.01934e+06
891.719
50986.5
1624.1
173.697