# vtk DataFile Version 3.0
2D-vertex
ASCII
DATASET UNSTRUCTURED_GRID

POINTS 204 float
0.393433 -2.57385 0
3.3458 -2.05216 0
3.61057 -1.21695 0
2.62267 -0.349053 0
-0.062387 -0.316371 0
-0.78337 -1.57165 0
4.42016 -1.07069 0
4.87486 -0.0866224 0
3.9573 0.984903 0
2.68011 0.454924 0
1.38509 1.30883 0
-0.562801 1.90473 0
-1.35676 0.764851 0
-1.79385 0.695975 0
-2.27267 -0.459365 0
-1.85293 -1.26495 0
5.51003 -0.114024 0
6.41799 1.15995 0
4.50837 1.85892 0
4.07858 1.67676 0
3.32569 2.28421 0
1.92674 2.0195 0
1.23199 4.97362 0
-0.0386917 4.82095 0
-0.653294 3.15103 0
-2.16165 2.70287 0
-2.27655 1.24585 0
-3.81501 1.1097 0
-4.21279 0.559599 0
-3.99645 -0.158742 0
7.55919 1.47821 0
8.10509 2.80548 0
7.49817 3.78972 0
5.48674 3.80661 0
6.07583 4.81825 0
3.51388 4.90784 0
2.66074 5.69329 0
1.59131 5.61952 0
0.29382 8.56363 0
-1.04445 8.36779 0
-0.863154 5.57073 0
-2.76292 5.0971 0
-3.70533 4.22753 0
-4.949 4.62576 0
-5.58946 4.00516 0
-7.01843 4.20966 0
-7.40692 3.61417 0
-6.00632 1.37197 0
7.90497 5.2907 0
7.52139 5.7725 0
7.18131 5.76928 0
5.75767 7.26951 0
3.40536 7.08711 0
3.00464 7.83964 0
1.35013 8.89767 0
1.77072 10.1294 0
-1.31931 10.7427 0
-1.8211 9.04115 0
-3.00374 8.52748 0
-3.1189 6.29529 0
-4.54189 7.48485 0
-5.88165 7.20743 0
-7.7849 7.27003 0
-8.10619 6.40211 0
8.19263 6.77071 0
8.05263 7.26374 0
6.57397 8.12202 0
5.7758 9.53189 0
4.51253 9.51796 0
3.96623 10.9831 0
3.173 11.1927 0
1.9775 12.1707 0
-0.670474 12.4728 0
-1.39782 11.8574 0
-3.61123 11.8833 0
-3.79678 10.9958 0
-4.83344 10.6966 0
-5.12905 9.45526 0
-7.92523 8.83934 0
-8.30268 7.91958 0
8.97399 8.21194 0
8.37557 9.85564 0
7.29835 10.7058 0
7.51178 11.3258 0
5.36905 12.5234 0
4.86463 13.1855 0
2.24055 13.79 0
1.89542 14.1561 0
-0.818552 14.5495 0
-1.22263 14.0559 0
-4.03188 14.0916 0
-4.63281 12.9894 0
-5.30867 12.9153 0
-5.7898 11.7964 0
-7.64993 11.0561 0
-8.39377 9.50089 0
4.26318 -3.60494 0
5.62802 -2.78958 0
6.67589 -2.05086 0
8.98681 0.429934 0
9.90435 2.46695 0
10.3835 5.52991 0
10.4346 6.54704 0
10.4484 8.29082 0
9.74683 10.737 0
8.961 12.0927 0
5.69988 14.8645 0
2.45333 16.0943 0
-1.23869 16.4075 0
-4.65947 15.3767 0
-6.33749 14.3764 0
-8.84674 12.064 0
-9.9201 9.76913 0
-10.0923 7.82919 0
-9.9674 6.14065 0
-9.42569 3.31955 0
-7.81039 0.196804 0
-5.55445 -1.91025 0
-3.10632 -3.29692 0
0.22054 -4.2335 0
4.10402 15.5758 0
3.50038 14.0375 0
-2.84975 16.0581 0
-2.30169 14.2756 0
-0.489849 2.96103 0
1.20213 3.20637 0
-2.06224 4.85407 0
-1.65628 3.18121 0
4.92291 5.64621 0
4.87649 6.71606 0
-0.0728163 10.6142 0
-0.00609562 8.78572 0
-1.4656 6.80546 0
-2.71895 6.78726 0
5.75591 7.31743 0
4.10935 8.7072 0
3.44621 8.65622 0
2.4682 10.2012 0
0.855277 11.7078 0
0.75232 11.096 0
-1.5028 10.9413 0
-3.17372 10.4306 0
-3.45536 8.85765 0
-4.19347 8.60001 0
1.45065 1.03977 0
-0.0821778 -0.204814 0
6.68762 3.5877 0
6.18773 1.40747 0
5.48507 3.81045 0
3.59269 3.93217 0
-2.67726 13.8782 0
-2.45574 12.4292 0
3.33724 3.72432 0
1.73162 4.08627 0
-6.64426 11.0886 0
-6.28891 9.36928 0
-0.967563 -1.64503 0
-1.39462 -3.94081 0
0.485618 14.5339 0
0.926602 16.406 0
1.41156 -2.11219 0
1.44761 -0.949987 0
2.15311 7.82743 0
1.20886 6.41911 0
4.12056 13.1394 0
3.02973 11.6989 0
0.913829 13.976 0
0.228124 12.4193 0
-3.16351 -0.647072 0
-3.99033 -2.86575 0
-5.24674 2.64733 0
-6.01177 2.04065 0
-6.46152 -1.19828 0
-5.22474 0.59059 0
0.247234 6.72066 0
-0.784547 6.17078 0
7.80415 9.9209 0
6.88351 8.13039 0
6.33045 0.575687 0
8.06453 -0.767702 0
2.07276 -4.24961 0
1.97738 -2.5 0
-7.00448 2.44579 0
-8.61236 1.38109 0
-6.15425 5.84046 0
-7.33851 5.49511 0
7.89179 4.31418 0
10.1963 3.79135 0
-7.60475 13.3603 0
-6.29684 11.7427 0
7.26517 13.9096 0
6.40461 12.6533 0
-3.47751 3.18754 0
-4.3084 2.37845 0
-9.72738 4.67524 0
-7.52547 5.01458 0
-3.91125 6.41337 0
-5.06065 5.22532 0
-5.98252 9.1419 0
-6.28867 7.60843 0
6.23712 10.5522 0
5.1313 11.6827 0
-0.250113 12.4478 0
-0.510738 10.6594 0

CELLS 306 918
2 160 0
2 1 2
2 2 3
2 161 4
2 4 5
2 5 0
2 2 6
2 6 7
2 7 8
2 8 9
2 3 9
2 9 144
2 10 11
2 11 12
2 145 4
2 12 13
2 13 14
2 15 14
2 5 156
2 7 16
2 17 178
2 147 17
2 19 18
2 19 8
2 20 19
2 21 20
2 10 21
2 153 125
2 23 22
2 24 23
2 24 124
2 127 24
2 26 25
2 26 13
2 27 26
2 28 27
2 29 28
2 14 168
2 30 17
2 30 31
2 32 31
2 32 146
2 18 33
2 33 148
2 128 35
2 20 152
2 35 36
2 37 36
2 22 37
2 37 163
2 38 131
2 175 40
2 40 23
2 126 40
2 42 41
2 25 192
2 43 42
2 43 44
2 193 27
2 45 44
2 46 45
2 47 171
2 173 47
2 48 186
2 48 49
2 49 50
2 34 50
2 50 51
2 52 129
2 36 52
2 52 53
2 53 162
2 54 38
2 55 54
2 139 55
2 57 56
2 39 57
2 58 57
2 59 133
2 41 59
2 59 196
2 61 60
2 197 43
2 199 61
2 62 63
2 195 185
2 49 64
2 64 65
2 177 65
2 51 134
2 67 66
2 68 67
2 53 136
2 69 68
2 70 69
2 55 137
2 165 70
2 138 71
2 72 73
2 140 56
2 151 73
2 74 75
2 58 142
2 75 76
2 77 76
2 60 143
2 77 198
2 78 79
2 79 62
2 65 80
2 80 81
2 81 176
2 67 200
2 82 83
2 83 191
2 201 69
2 85 84
2 85 164
2 71 86
2 86 87
2 158 88
2 88 89
2 89 72
2 89 123
2 90 91
2 91 74
2 91 92
2 93 92
2 76 93
2 189 93
2 94 95
2 95 78
2 96 1
2 96 97
2 97 6
2 97 98
2 16 98
2 179 99
2 99 30
2 31 100
2 187 101
2 101 48
2 101 102
2 102 64
2 102 103
2 103 80
2 81 104
2 104 105
2 83 105
2 105 190
2 106 85
2 106 120
2 87 107
2 108 88
2 108 122
2 109 90
2 109 110
2 92 110
2 110 188
2 111 94
2 95 112
2 112 113
2 113 79
2 113 114
2 63 114
2 114 194
2 115 46
2 116 47
2 116 172
2 117 29
2 169 118
2 118 15
2 157 119
2 0 119
2 119 180
2 99 100
2 103 104
2 159 108
2 111 112
2 183 116
2 120 107
2 121 86
2 120 121
2 122 109
2 123 150
2 122 123
2 124 11
2 125 21
2 124 125
2 41 126
2 127 25
2 126 127
2 34 128
2 129 51
2 128 129
2 203 130
2 131 39
2 130 131
2 39 132
2 133 58
2 132 133
2 134 66
2 135 68
2 134 135
2 136 135
2 137 70
2 136 137
2 138 167
2 130 139
2 139 138
2 73 140
2 141 75
2 140 141
2 142 141
2 143 77
2 142 143
2 144 10
2 145 12
2 144 145
2 146 33
2 147 18
2 146 147
2 148 34
2 149 35
2 148 149
2 150 90
2 151 74
2 150 151
2 152 149
2 153 22
2 152 153
2 94 154
2 155 78
2 154 155
2 156 15
2 157 118
2 156 157
2 87 166
2 159 107
2 158 159
2 181 160
2 161 3
2 160 161
2 162 54
2 163 174
2 162 163
2 164 121
2 165 71
2 164 165
2 166 158
2 167 202
2 166 167
2 168 29
2 169 117
2 168 169
2 44 170
2 171 182
2 170 171
2 172 117
2 173 28
2 172 173
2 174 38
2 175 132
2 174 175
2 176 82
2 177 66
2 176 177
2 178 16
2 179 98
2 178 179
2 180 96
2 181 1
2 180 181
2 182 46
2 183 115
2 182 183
2 61 184
2 185 63
2 184 185
2 186 32
2 187 100
2 186 187
2 188 111
2 189 154
2 188 189
2 190 106
2 191 84
2 190 191
2 192 42
2 193 170
2 192 193
2 194 115
2 195 45
2 194 195
2 196 60
2 197 184
2 196 197
2 198 155
2 199 62
2 198 199
2 200 82
2 201 84
2 200 201
2 202 72
2 203 56
2 202 203

CELL_TYPES 306
3
3
3
3
3
3
3
3
3
3
3
3
3
3
3
3
3
3
3
3
3
3
3
3
3
3
3
3
3
3
3
3
3
3
3
3
3
3
3
3
3
3
3
3
3
3
3
3
3
3
3
3
3
3
3
3
3
3
3
3
3
3
3
3
3
3
3
3
3
3
3
3
3
3
3
3
3
3
3
3
3
3
3
3
3
3
3
3
3
3
3
3
3
3
3
3
3
3
3
3
3
3
3
3
3
3
3
3
3
3
3
3
3
3
3
3
3
3
3
3
3
3
3
3
3
3
3
3
3
3
3
3
3
3
3
3
3
3
3
3
3
3
3
3
3
3
3
3
3
3
3
3
3
3
3
3
3
3
3
3
3
3
3
3
3
3
3
3
3
3
3
3
3
3
3
3
3
3
3
3
3
3
3
3
3
3
3
3
3
3
3
3
3
3
3
3
3
3
3
3
3
3
3
3
3
3
3
3
3
3
3
3
3
3
3
3
3
3
3
3
3
3
3
3
3
3
3
3
3
3
3
3
3
3
3
3
3
3
3
3
3
3
3
3
3
3
3
3
3
3
3
3
3
3
3
3
3
3
3
3
3
3
3
3
3
3
3
3
3
3
3
3
3
3
3
3
3
3
3
3
3
3
3
3
3
3
3
3
3
3
3
3
3
3
3
3
3
3
3
3
3
3
3
3
3
3

CELL_DATA 306
SCALARS current_Length float
LOOKUP_TABLE default
1.11791
0.876168
1.315
1.63754
1.4476
1.54573
0.822688
1.08404
1.4107
1.38279
0.806027
1.36147
2.03701
1.38913
0.1133
0.442476
1.25063
0.908379
0.198271
0.63576
0.590787
0.338059
0.466797
0.702409
0.967389
1.42377
0.893555
1.02693
1.27982
1.77942
0.25063
1.00344
1.46154
0.731687
1.54448
0.678857
0.750211
0.9104
1.18475
1.43515
1.15632
0.835342
2.17961
0.00419725
1.59077
1.44015
1.15965
1.07197
0.739125
0.886343
0.373191
0.605182
1.11441
1.39693
1.2823
1.40228
1.30588
0.891821
1.3613
1.44352
0.711008
0.668706
1.10518
0.976611
0.615843
0.340094
1.45827
2.0682
1.5172
1.58026
0.852568
0.851619
1.10786
1.30155
1.40412
1.77401
1.02791
1.28938
0.634027
1.24995
0.8011
1.36818
0.609862
0.571377
0.925478
0.515612
1.20291
0.512526
1.45531
0.0479522
1.62012
1.26335
0.928322
1.56369
0.820442
0.701161
0.526105
1.21396
0.952798
0.270392
1.20257
0.906723
0.559434
1.07896
1.27606
1.16832
0.90918
0.994196
0.830671
1.32211
1.74924
0.575135
1.11975
0.655747
1.72858
1.35895
0.832354
0.745501
1.64048
0.503194
1.30426
0.63791
1.67659
1.10119
1.25542
1.50569
0.679909
1.21793
1.45744
0.509875
1.7239
0.810659
1.80353
1.58984
2.10084
1.28209
2.26066
1.5116
1.77115
1.83083
1.74861
2.49004
1.01842
2.25306
1.74383
1.47653
1.63009
1.56698
1.63962
2.48535
1.87532
1.7472
2.01689
1.90495
1.64851
1.43015
1.95358
1.78699
1.62427
1.56472
1.54973
1.94757
1.79187
1.69315
1.87948
1.48493
2.04016
2.15307
1.94054
2.34417
0.983557
2.38745
1.64147
1.66863
1.85229
2.23412
2.54482
2.1653
2.53351
1.43028
1.73022
1.28393
1.65245
1.93374
0.546796
1.86491
1.05882
1.39058
1.70967
0.741623
0.695847
1.72141
1.41942
1.04056
1.07086
1.2531
1.1193
1.82972
1.6181
1.76337
1.25348
1.14743
0.905478
2.15468
0.665093
1.21647
1.82851
0.948501
0.955511
0.62033
0.922073
0.841194
1.74723
1.59796
1.26758
0.781788
0.276925
1.6015
1.97448
1.22067
1.73899
2.2368
1.16818
0.97885
1.89628
1.37134
1.27797
1.46579
0.329322
1.01834
1.64592
1.0062
1.72
1.75566
0.963497
1.8288
2.33517
0.997974
1.55822
1.92338
0.685968
1.31981
1.16276
1.33798
1.0078
1.69558
1.09146
1.15317
1.80691
0.703246
0.900189
1.70103
0.96554
1.83288
2.36774
1.40041
1.0722
0.976387
1.15312
1.01242
2.17478
1.84355
0.930942
1.16916
0.933739
0.309655
2.01333
1.07182
1.89071
2.19356
2.28332
1.43984
1.7522
1.23574
2.10217
1.92844
1.39389
1.18827
1.23359
0.655744
1.35619
2.36304
1.79526
0.740649
2.08023
1.83356
1.04367
1.5228
1.06465
0.976107
1.15974
1.38885
0.951312
2.2279
1.24329
1.25473
1.65306
0.381538
1.53401
1.56373
1.07229
0.873674
1.5814
0
0
0

SCALARS edge_force float
LOOKUP_TABLE default
0.5
0.5
0.5
0.5
0.5
0.5
0.5
0.5
0.5
0.5
0.5
0.5
0.5
0.5
0.5
0.5
0.5
0.5
0.5
0.5
0.5
0.5
0.5
0.5
0.5
0.5
0.5
0.5
0.5
0.5
0.5
0.5
0.5
0.5
0.5
0.5
0.5
0.5
0.5
0.5
0.5
0.5
0.5
0.5
0.5
0.5
0.5
0.5
0.5
0.5
0.5
0.5
0.5
0.5
0.5
0.5
0.5
0.5
0.5
0.5
0.5
0.5
0.5
0.5
0.5
0.5
0.5
0.5
0.5
0.5
0.5
0.5
0.5
0.5
0.5
0.5
0.5
0.5
0.5
0.5
0.5
0.5
0.5
0.5
0.5
0.5
0.5
0.5
0.5
0.5
0.5
0.5
0.5
0.5
0.5
0.5
0.5
0.5
0.5
0.5
0.5
0.5
0.5
0.5
0.5
0.5
0.5
0.5
0.5
0.5
0.5
0.5
0.5
0.5
0.5
0.5
0.5
0.5
0.5
0.5
0.5
0.5
0.5
0.5
0.5
0.5
0.5
0.5
0.5
0.5
0.5
0.5
0.5
2
0.5
2
0.5
2
0.5
0.5
2
0.5
2
0.5
2
0.5
0.5
2
0.5
2
0.5
2
0.5
0.5
2
0.5
2
0.5
2
0.5
0.5
2
0.5
2
0.5
2
0.5
0.5
2
0.5
2
0.5
2
0.5
2
2
2
2
2
2
2
0.5
0.5
2
0.5
0.5
0.5
0.5
0.5
0.5
0.5
0.5
0.5
0.5
0.5
0.5
0.5
0.5
0.5
0.5
0.5
0.5
0.5
0.5
0.5
0.5
0.5
0.5
0.5
0.5
0.5
0.5
0.5
0.5
0.5
0.5
0.5
0.5
0.5
0.5
0.5
0.5
0.5
0.5
0.5
0.5
0.5
0.5
0.5
0.5
0.5
0.5
0.5
0.5
0.5
2
0.5
0.5
2
0.5
0.5
0.5
0.5
0.5
0.5
0.5
0.5
0.5
0.5
0.5
0.5
0.5
0.5
2
0.5
0.5
0.5
0.5
2
0.5
0.5
0.5
0.5
0.5
0.5
0.5
0.5
0.5
2
0.5
2
0.5
0.5
0.5
2
0.5
0.5
0.5
0.5
0.5
2
0.5
2
0.5
0.5
2
0.5
0.5
0.5
0.5
0.5
2
0.5
0.5
0.5
0.5
0.5
0.5
0.5
0.5
0.5
0.5
0.5
0
0
0
