# vtk DataFile Version 2.0
2D-vertex
ASCII
DATASET UNSTRUCTURED_GRID
POINTS 678 float
0.171434 -3.19111 0
2.62111 -3.06456 0
3.04167 -2.12763 0
2.05045 -1.02484 0
-0.20976 -0.805886 0
-0.974182 -2.2743 0
3.56874 -2.11146 0
4.17066 -1.27774 0
3.28993 0.270333 0
2.23263 -0.00868906 0
1.09956 1.28718 0
-0.575742 1.8178 0
-1.37881 0.56661 0
-1.53686 0.532426 0
-2.10273 -1.12199 0
-1.61837 -2.02348 0
4.73799 -1.45539 0
5.57779 -0.605404 0
3.79687 0.996315 0
3.52199 0.938423 0
2.67836 1.92768 0
1.60686 1.87648 0
1.07679 5.49746 0
0.193639 5.49823 0
-0.670408 3.65955 0
-1.91583 2.7939 0
-1.88451 0.891758 0
-3.18465 0.635685 0
-3.72489 -0.384574 0
-3.44221 -1.10422 0
6.64627 -0.631752 0
7.29128 0.0668906 0
7.16221 1.38623 0
4.98531 2.63635 0
5.47423 3.1991 0
3.17284 4.60663 0
2.46155 5.90043 0
1.5585 6.08926 0
0.694534 9.22199 0
-0.925802 9.30506 0
-0.660199 6.33504 0
-2.21138 5.44267 0
-3.28771 3.93871 0
-4.25258 3.99482 0
-5.0181 2.6068 0
-6.43595 2.32852 0
-6.74634 1.26754 0
-5.2647 -0.115882 0
7.60467 1.9929 0
7.29862 3.04854 0
6.56256 3.4965 0
5.90884 5.57537 0
3.59458 6.84368 0
3.55145 7.68417 0
2.13663 9.30622 0
2.69423 9.99952 0
-1.90207 10.6557 0
-1.83439 9.8175 0
-3.07698 8.54449 0
-2.78837 6.42374 0
-4.43883 6.77629 0
-5.83545 5.49299 0
-7.784 4.04307 0
-7.64962 3.50876 0
8.2344 3.42539 0
8.23444 3.42789 0
6.83235 5.52046 0
7.30832 6.70399 0
6.1037 8.01249 0
6.33986 8.67986 0
5.62817 9.69915 0
5.41546 10.1454 0
-2.64748 12.9318 0
-2.87413 12.6669 0
-6.15788 9.94287 0
-5.48491 9.12418 0
-6.21296 7.79495 0
-6.12655 7.618 0
-8.76513 4.56269 0
-8.62005 4.21036 0
9.78215 3.67476 0
10.1349 4.61361 0
9.37003 5.62816 0
10.5592 6.00756 0
10.3223 7.53859 0
10.5442 8.24751 0
9.96065 12.9515 0
11.0218 15.0785 0
-9.82591 15.1245 0
-9.80917 15.0646 0
-10.1476 9.16749 0
-9.85201 8.63681 0
-10.1941 8.0118 0
-9.45776 6.90655 0
-10.2758 5.66179 0
-9.82543 4.68046 0
3.49535 -4.94573 0
4.70905 -4.42582 0
5.55025 -4.04153 0
7.93429 -2.50498 0
9.2596 -1.10186 0
10.6481 1.19649 0
10.741 1.3557 0
11.4687 2.40273 0
12.3121 4.30533 0
12.5452 5.0782 0
12.8459 8.58854 0
13.5901 15.4231 0
-13.3087 15.6014 0
-12.7441 9.13358 0
-12.6616 7.85734 0
-12.2986 5.32021 0
-11.4376 3.37748 0
-10.5882 2.27584 0
-9.99379 1.55422 0
-9.10944 0.232757 0
-7.21086 -1.92161 0
-5.16314 -3.34595 0
-3.08552 -4.36932 0
-0.102763 -5.23728 0
12.7566 10.1503 0
8.76026 10.4039 0
-13.0188 11.6391 0
-10.1697 12.43 0
-0.429591 3.3211 0
0.877616 3.39212 0
-1.93089 5.40167 0
-1.22229 3.66313 0
4.44687 4.77383 0
4.87503 5.68532 0
0.407925 10.7764 0
0.173321 9.73343 0
-1.16458 7.67277 0
-2.37905 7.39883 0
5.90797 5.5777 0
5.14203 7.55762 0
4.17666 8.08506 0
4.21197 9.39201 0
2.23544 10.9651 0
2.23335 10.9637 0
-2.47078 10.9346 0
-4.02975 9.28439 0
-3.58986 8.57236 0
-4.55441 7.35895 0
1.20402 0.642819 0
-0.266267 -0.321984 0
6.34323 1.65451 0
5.21359 0.143769 0
4.98333 2.63787 0
2.97905 3.49688 0
-9.02899 10.7713 0
-5.96758 10.61 0
2.97656 3.49697 0
1.55269 4.20839 0
-9.4658 6.85008 0
-8.05509 6.22789 0
-1.00446 -2.28904 0
-1.4699 -4.97141 0
11.1203 34.4843 0
12.6625 35.5794 0
0.987758 -2.86521 0
1.12721 -1.4103 0
2.52956 8.09741 0
1.32816 7.08669 0
8.56548 9.91935 0
5.62867 9.70161 0
9.7173 20.7644 0
0.164047 12.6127 0
-2.89212 -1.36887 0
-3.64746 -4.12075 0
-4.46352 1.6779 0
-5.3774 0.508702 0
-5.79742 -2.95944 0
-4.68573 -0.5179 0
0.387622 7.58938 0
-0.555295 7.16789 0
9.33487 5.48749 0
7.71438 4.74356 0
5.37985 -1.13318 0
7.05581 -3.17218 0
1.44579 -5.33748 0
1.52307 -3.30851 0
-6.32518 0.644232 0
-7.95144 -1.22059 0
-5.45301 4.39188 0
-6.79238 3.17075 0
7.42957 1.51011 0
9.85281 -0.237423 0
-12.54 6.70389 0
-9.47818 6.87345 0
12.9016 7.10783 0
10.7974 7.00682 0
-2.88028 2.99495 0
-3.81391 1.65598 0
-9.58338 0.987302 0
-6.78759 2.60106 0
-3.6286 6.24595 0
-4.41442 4.29412 0
-6.88297 6.40116 0
-6.47067 5.59356 0
8.30372 6.84233 0
8.53221 7.32887 0
-0.813101 12.4804 0
-0.646597 11.4949 0
12.7612 10.1593 0
10.1957 11.5246 0
10.1543 13.8702 0
1.99625 11.4322 0
7.97942 8.58513 0
9.25876 9.28448 0
-7.37061 7.91004 0
-7.70746 8.67617 0
-2.2767 14.7288 0
0.88984 13.8614 0
-10.0945 12.9426 0
-4.15547 12.5557 0
9.25759 9.28671 0
12.7593 9.64381 0
-10.872 14.15 0
-13.3727 14.5922 0
-12.7945 10.1238 0
-9.28169 10.3547 0
13.1696 18.1975 0
10.5237 16.6836 0
8.44835 10.8508 0
6.33072 11.0719 0
-9.2817 10.3522 0
-7.38706 9.62345 0
2.45549 14.3634 0
4.20833 12.7611 0
-4.48738 11.0441 0
-3.69439 10.3279 0
4.96366 12.5066 0
4.01423 11.0124 0
13.1669 11.8524 0
10.4272 12.0792 0
-2.90801 14.3347 0
-4.64771 13.5136 0
-11.8797 28.7403 0
0.110995 15.3752 0
-6.58076 11.1969 0
-4.53751 12.8256 0
-12.8712 10.8394 0
-9.50199 11.4037 0
6.352 16.4509 0
8.3866 14.7128 0
-1.03173 14.1713 0
-0.618171 12.6896 0
-10.6272 18.4606 0
-13.5754 17.8515 0
7.82904 37.7449 0
2.4088 15.3727 0
-3.09922 16.8091 0
-10.5198 18.855 0
-10.8335 13.4364 0
-13.2435 12.6941 0
-6.71534 14.9428 0
-6.18249 13.7881 0
-6.45493 11.8747 0
-7.31687 12.8533 0
13.4652 13.5919 0
10.9469 14.4026 0
-11.2447 20.2057 0
-13.9218 20.6911 0
6.1322 12.1406 0
4.965 12.5045 0
10.4117 15.7549 0
8.46374 15.3583 0
4.05433 13.8198 0
6.86884 15.9466 0
-2.07111 15.9955 0
-0.419539 16.3053 0
14.3855 21.9927 0
11.8488 22.5063 0
0.373091 15.3217 0
1.40726 16.0607 0
12.2947 24.48 0
4.16814 15.9411 0
13.2987 12.7119 0
10.2763 13.3281 0
-8.55652 14.5075 0
-8.61193 13.6388 0
-9.40268 11.7187 0
-7.32779 12.4952 0
-10.2043 17.9794 0
-6.36926 16.5849 0
4.98218 39.237 0
5.0051 41.1233 0
1.81908 13.7268 0
2.56513 12.2173 0
-3.9764 15.9399 0
-3.9458 14.9156 0
-13.4229 16.9247 0
-10.4442 17.3639 0
0.00249508 17.6975 0
-0.207161 17.5717 0
7.85299 13.0748 0
7.45882 13.9458 0
8.71216 11.3828 0
7.69584 12.7644 0
-11.2873 19.5128 0
-13.769 18.8741 0
-2.60893 16.7772 0
-1.63803 18.1007 0
1.70189 17.0707 0
3.54481 17.0422 0
6.43318 14.112 0
6.20729 14.6098 0
-7.65409 18.0409 0
-7.44985 18.3696 0
-9.32361 15.7669 0
-6.5858 15.8887 0
4.13774 15.8745 0
4.8272 14.7082 0
-10.6058 22.078 0
-3.87251 18.1607 0
14.7286 23.3564 0
12.6502 23.7082 0
-14.4635 28.8741 0
-12.5665 28.2493 0
8.87226 17.2118 0
7.86924 16.0801 0
13.2121 19.1058 0
9.92977 19.9608 0
4.4168 18.2774 0
6.32677 19.0402 0
1.535 19.4265 0
3.78089 18.7158 0
-0.493384 25.0822 0
-3.19404 23.9497 0
-2.9962 22.2837 0
-4.53083 19.9914 0
-6.35414 15.547 0
-4.13737 14.8184 0
-9.88151 20.7906 0
-8.41123 19.5063 0
8.0551 23.7107 0
7.69032 20.8554 0
-13.3169 16.0415 0
-9.70273 16.3741 0
-9.68492 16.4149 0
-7.45984 17.2941 0
0.0452375 19.6067 0
0.259148 19.3372 0
11.2308 33.5473 0
2.47529 22.5798 0
14.9961 30.8699 0
13.2694 30.3057 0
-14.5468 23.3053 0
-12.0498 23.3357 0
-5.49921 16.8865 0
-5.27203 17.9136 0
8.45533 17.9035 0
7.23778 17.8128 0
1.57031 17.2822 0
2.16376 18.3485 0
10.6901 16.2682 0
13.521 16.4147 0
13.1001 18.5171 0
8.88267 17.5034 0
-11.4636 24.1464 0
-4.50586 20.1398 0
-2.02217 18.9917 0
-3.53378 18.9432 0
4.0398 23.0771 0
4.70318 22.4564 0
-5.92754 18.5824 0
-5.7278 19.5396 0
4.42465 17.8941 0
6.38399 16.9425 0
-1.6737 22.0157 0
0.00800198 23.2639 0
1.96339 28.6097 0
9.98178 32.5064 0
-6.05811 37.6542 0
-7.06867 39.4461 0
-1.18703 38.7207 0
-2.10096 24.7341 0
-14.1504 21.4696 0
-11.856 22.6116 0
-1.66188 19.5401 0
-3.48735 20.6765 0
-7.47585 21.416 0
-5.89062 21.4542 0
12.5132 28.4879 0
10.3888 30.9331 0
5.42975 20.9464 0
7.12799 21.4495 0
11.805 22.5994 0
8.97997 22.7785 0
13.7003 20.3085 0
11.5344 21.8722 0
-12.3838 27.0397 0
-3.59914 21.8045 0
15.2373 28.673 0
13.2941 28.985 0
2.68776 20.534 0
3.91494 19.7639 0
-14.8051 25.3469 0
-12.6599 25.8094 0
-1.18432 26.8292 0
4.31271 24.2112 0
0.525143 20.843 0
2.24197 21.32 0
-8.39975 19.5666 0
-7.06122 20.3171 0
9.01861 18.9922 0
7.42505 19.7132 0
-1.27604 21.2381 0
-1.98277 20.2359 0
13.0983 18.527 0
9.03908 18.9367 0
-2.2141 24.3781 0
-1.08961 23.0838 0
-5.74899 21.9052 0
-4.67051 22.3452 0
-4.15952 24.3273 0
-4.81065 23.7146 0
-13.9253 20.7006 0
-10.6024 21.761 0
5.70785 24.4419 0
6.44736 23.4252 0
0.16589 30.067 0
1.82717 38.9837 0
-8.15545 22.5126 0
-7.6692 23.4842 0
0.849372 39.3064 0
0.603556 41.3823 0
-8.60865 29.2131 0
-6.3864 30.6039 0
10.2005 21.4108 0
8.9005 22.3551 0
14.9845 24.7233 0
12.719 25.0658 0
6.25196 22.8599 0
7.23239 21.8336 0
2.70476 20.9734 0
4.54548 21.7235 0
3.6351 24.7751 0
4.82833 28.5315 0
5.30589 20.3161 0
6.40001 19.3465 0
2.03515 22.9756 0
2.26445 24.201 0
13.3975 19.6609 0
10.2002 21.1322 0
-3.33895 34.8104 0
-2.7591 32.3495 0
-11.726 30.9351 0
-13.4828 31.7116 0
0.142483 21.3118 0
0.609579 22.5944 0
-7.01469 23.5247 0
-6.61213 24.138 0
-9.80507 21.204 0
-7.47579 21.4135 0
8.83854 26.3424 0
10.0915 24.7826 0
-14.7853 27.3502 0
-12.6572 26.8278 0
-6.90626 25.0286 0
-6.60823 26.589 0
2.98688 33.2871 0
7.10522 32.1468 0
-10.2648 33.0519 0
-7.87612 30.3454 0
8.54058 26.8286 0
5.60252 27.4375 0
2.52472 28.1267 0
1.72404 26.0983 0
-4.11825 26.0639 0
-3.96427 26.1231 0
6.34906 38.9482 0
7.19478 40.481 0
0.308712 24.2863 0
1.60722 24.7257 0
-9.05219 24.6822 0
-9.08332 25.2355 0
3.41393 35.3206 0
2.16342 37.6695 0
-2.65362 25.6069 0
-1.91366 26.7769 0
12.826 30.6186 0
11.1438 30.0201 0
-3.578 38.9715 0
-3.77324 40.9012 0
-5.26067 37.6405 0
-3.69751 34.7722 0
10.4196 24.3742 0
10.1713 23.2381 0
-9.58754 27.6188 0
-8.50975 25.6281 0
12.4671 27.6377 0
10.4246 26.4049 0
-1.24985 35.5502 0
0.728221 32.2968 0
-9.76398 22.7417 0
-10.0556 23.9236 0
14.3738 32.6156 0
12.9006 31.8925 0
15.1727 25.9618 0
12.955 26.4153 0
9.68333 36.0723 0
8.17914 34.9017 0
-0.479008 30.0958 0
-0.60919 27.9555 0
-8.08123 35.8854 0
-9.6128 37.1505 0
3.63803 25.8007 0
2.38915 26.4635 0
6.6084 30.8504 0
6.9517 27.5339 0
6.16096 25.1211 0
5.00018 25.956 0
-4.57662 29.3481 0
-3.57162 30.022 0
8.4039 24.5874 0
8.12438 24.9995 0
5.05609 30.3771 0
4.53818 33.2434 0
-11.3281 31.2348 0
-9.36465 29.3113 0
9.49276 37.5041 0
10.3358 38.3879 0
-7.69533 28.1013 0
-4.63871 28.6908 0
-6.91859 36.4419 0
-5.98961 34.8934 0
2.32063 32.907 0
1.84612 33.1305 0
-14.0276 30.2901 0
-11.9513 29.4861 0
-12.6156 33.4032 0
-11.3743 32.6209 0
-0.469006 36.5945 0
0.104691 36.5406 0
[...]
CELL_DATA 340
SCALARS cell_division_count float
LOOKUP_TABLE default
1
0
1
0
0
0
1
0
0
1
1
1
1
1
1
1
0
1
1
1
1
1
1
0
1
1
1
1
1
1
1
1
2
4
3
1
1
0
0
1
1
0
0
0
1
2
3
0
1
0
0
1
1
1
1
1
0
0
3
0
1
2
3
1
1
1
1
1
1
1
2
2
1
1
1
1
2
1
1
1
3
1
1
2
9
1
1
1
1
1
1
1
1
1
1
1
1
1
1
1
1
1
2
3
5
2
1
3
5
2
2
2
5
3
2
4
2
3
5
5
6
3
3
6
3
4
6
9
3
5
4
4
8
5
6
6
5
4
5
14
5
5
5
7
5
4
6
4
10
5
3
4
6
6
6
7
6
6
11
7
8
7
6
7
8
13
11
6
8
9
4
7
8
12
6
7
7
8
8
3
6
12
10
11
9
7
11
13
9
13
8
11
10
11
9
9
5
14
6
10
8
13
10
10
8
11
6
10
11
14
8
11
13
11
8
12
9
8
9
11
13
9
11
6
15
11
11
12
11
13
8
13
13
12
15
14
10
7
12
13
12
11
12
10
13
9
14
15
12
12
7
9
13
15
9
14
14
14
13
13
12
12
7
12
14
12
8
9
13
14
13
13
14
14
13
9
14
14
14
12
14
14
14
8
15
9
9
14
13
13
13
12
12
10
12
12
13
15
7
13
13
15
9
14
14
14
7
13
13
12
13
13
15
14
13
13
15
14
12
15
13
9
11
13
13
14
13
13
13
12
9
7
10
13
13
14
15
13
15
13
SCALARS cell_time float
LOOKUP_TABLE default
1891
2.22229e+13
1911
4.48239e+13
2.67348e+11
1.25633e+10
1921
2.68224e+09
9.19769e+11
1911
1911
1901
1871
1921
1841
1881
1.2279e+06
1921
1891
1921
1921
1821
1861
25703.4
1921
1921
1921
1921
1921
1811
1871
1811
1771
1511
1661
1761
1901
1.00108e+18
2.94533e+15
1871
1861
107003
3265.76
1977.34
1851
1751
1551
1968.01
1861
4619.01
2236.18
1841
1881
1891
1901
1871
1.12104e+13
23086.3
1341
3957.96
1871
1791
1611
1921
1921
1921
1921
1921
1921
1921
1801
1681
1921
1911
1911
1911
1741
1901
1901
1901
1041
1891
1891
1751
671
1891
1881
1881
1871
1871
1871
1871
1871
1861
1861
1861
1851
1841
1841
1821
1811
1811
1801
1671
1491
1771
1761
1611
1391
1751
1751
1751
1041
1331
1741
1361
1681
1671
1401
1361
1251
1631
1611
1241
1611
1331
1341
1031
1551
1401
1531
1531
311
1341
1231
1261
1461
1241
1431
261
1401
1401
1391
1091
521
1361
1131
1111
761
1341
1331
1331
1331
1321
1261
1061
1251
1241
601
671
591
1051
641
981
1051
91
731
1131
1121
671
1111
1091
1091
151
451
921
1061
781
1051
1041
771
461
911
671
991
981
611
401
91
71
731
781
901
491
671
471
871
261
851
851
251
271
821
791
781
781
771
761
741
281
731
721
1
711
241
161
671
451
671
671
391
671
661
641
1
91
611
611
601
381
591
141
131
101
101
301
531
51
511
501
61
501
121
51
111
471
261
111
261
461
151
241
81
141
141
141
141
141
211
381
201
201
141
161
111
121
311
311
131
301
121
81
281
81
271
271
271
261
261
81
261
21
261
251
121
61
241
121
121
211
41
201
191
181
161
161
71
11
151
151
141
141
141
141
141
141
141
131
131
121
41
121
121
121
121
111
111
111
101
101
91
91
91
81
81
81
1
71
71
61
61
51
51
41
41
21
11
1
1
1
SCALARS cell_area float
LOOKUP_TABLE default
3.24194
3.30011
3.29361
3.35615
3.35142
3.34399
3.32755
3.37518
3.3489
3.28182
3.33715
3.28322
3.38688
3.32005
3.3064
3.33011
3.39886
3.28975
3.34703
3.39704
3.39263
3.34054
3.33977
3.3728
3.35993
3.37727
3.43914
3.40406
3.39235
3.33031
3.24716
3.2982
3.34937
3.3334
3.44734
3.25075
3.34615
3.25237
3.26084
3.24836
3.23662
3.27785
3.26194
3.27861
3.22034
3.28582
3.25868
3.26366
3.25934
3.24819
3.26785
3.27335
3.21629
3.2569
3.2445
3.24194
3.20943
3.21724
3.27399
3.19633
3.24601
3.30739
3.27099
3.281
3.33813
3.28598
3.39883
3.35285
3.28141
3.35891
3.45112
3.35326
3.35807
3.28717
3.24863
3.27566
3.34257
3.35203
3.23183
3.22183
3.22476
3.25857
3.33595
3.32993
3.3648
3.2224
3.29688
3.25205
3.37136
3.28828
3.22425
3.20354
3.21587
3.30447
3.25123
3.2448
3.25907
3.32465
3.26299
3.3012
3.29039
3.26415
3.40087
3.23496
3.29751
3.24175
3.32968
3.3871
3.29262
3.27926
3.2619
3.27277
3.27928
3.29298
3.24718
3.31535
3.35766
3.40365
3.25853
3.42757
3.30095
3.35185
3.27342
3.34471
3.40536
3.26935
3.44077
3.39393
3.2189
3.28082
3.33525
3.21127
3.29258
3.37108
3.3196
3.35124
3.36401
3.27118
3.36575
3.30201
3.25348
3.28446
3.3169
3.27468
3.24229
3.34875
3.39722
3.27475
3.34858
3.31639
3.30194
3.24132
3.36883
3.35743
3.38522
3.38659
3.34065
3.30646
3.35245
3.28289
3.26693
3.41072
3.29509
3.31727
3.36336
3.33954
3.35031
3.32787
3.29702
3.35288
3.27648
3.32636
3.42539
3.31045
3.27892
3.23919
3.35955
3.36981
3.38256
3.2444
3.30061
3.30965
3.42414
3.37302
3.38667
3.31395
3.36724
3.36748
3.24201
3.30211
3.28601
3.39798
3.39441
3.28535
3.35176
3.26791
3.24467
3.29329
3.24409
3.33516
3.27259
3.29756
3.40687
3.3499
3.30266
3.37657
3.29461
3.32695
3.37222
3.34481
3.31367
3.37331
3.3268
3.34021
3.29824
3.28538
3.34226
3.28706
3.36102
3.35884
3.41487
3.34582
3.37675
3.2883
3.33354
3.31081
3.38105
3.3118
3.2966
3.34944
3.22846
3.33628
3.37889
3.25507
3.31396
3.36624
3.39956
3.28779
3.36471
3.37014
3.27035
3.33502
3.2621
3.31105
3.33805
3.32596
3.36833
3.28315
3.27127
3.30893
3.29444
3.25833
3.25099
3.30362
3.25383
3.34748
3.26534
3.32307
3.35031
3.32174
3.28449
3.29088
3.29741
3.32454
3.31192
3.35717
3.28418
3.28924
3.3028
3.31652
3.30576
3.30023
3.35338
3.30063
3.34528
3.2906
3.31905
3.33219
3.35329
3.31102
3.26173
3.3058
3.31752
3.27537
3.30731
3.25825
3.31139
3.29917
3.27585
3.30424
3.28889
3.29857
3.29705
3.29594
3.34148
3.32386
3.31913
3.30347
3.30685
3.34504
3.30321
3.31733
3.29736
3.30371
3.30155
3.2914
3.31127
3.33808
3.32579
3.29612
3.29724
3.32343
3.25787
3.30422
3.32062
3.31676
3.3672
3.33575
3.29589
3.30447
3.31504
3.28141
3.30995
3.24486
3.33821
3.2811
3.3714
3.27017
3.32198
3.31469
3.31347
3.28789
3.30812
3.25301
3.31773
3.28034
3.27472
3
3.26194
173
SCALARS cell_perimeter float
LOOKUP_TABLE default
6.93057
6.94533
6.96342
7.20266
7.13205
6.82152
7.07262
7.64049
6.93878
6.92651
7.38937
7.003
6.80414
7.23306
7.04377
6.79674
7.18285
6.96937
6.9344
7.03724
6.93149
7.25726
7.24054
7.57098
7.57605
6.948
8.07718
7.0657
6.88395
7.0667
6.95283
7.04377
8.23106
7.02898
7.03142
7.33825
7.90095
7.52911
7.83834
7.64832
8.28677
8.68875
8.20797
7.7769
7.38728
9.49062
7.96397
7.66791
8.06565
7.67152
8.15025
8.47128
7.79597
8.08545
7.68065
7.22069
7.44342
7.39547
8.26181
7.329
7.74101
9.54976
8.56249
7.03638
7.13544
7.23436
6.91893
7.05822
7.16709
6.87151
7.88931
7.04666
7.15679
7.07926
7.2409
7.21795
7.81721
7.25694
6.93671
7.88235
8.14773
6.79168
7.01328
7.93592
7.48518
7.99245
6.82588
7.99482
7.04487
7.00003
7.80681
7.3163
7.66459
7.12563
7.94551
7.98701
7.3711
6.94374
8.24922
7.17795
7.16749
6.94436
7.15937
7.99743
7.14198
7.02726
6.84561
7.24504
7.29044
8.55958
8.53044
8.57855
9.73855
7.20855
7.2498
7.07339
6.92466
7.57334
8.18377
6.91666
7.68289
7.23633
8.93317
7.26784
7.2486
8.0333
7.06093
7.02525
7.67835
7.01861
7.29527
7.75224
7.31289
7.42802
7.20051
7.15115
7.05842
7.59925
6.8846
7.07503
8.13639
6.88481
7.58067
7.5911
7.31611
7.21616
7.42877
8.78986
7.04087
7.27636
7.25491
7.80102
7.08016
7.24913
6.87544
6.90591
7.99789
7.0318
7.61762
7.36281
7.31528
7.05352
8.93498
7.36596
7.02894
6.95856
6.95518
7.26927
7.37855
7.14208
9.11631
7.92332
7.1087
6.94478
7.12965
7.68765
7.05811
7.14797
7.35128
7.91496
10.1996
6.82411
7.2509
7.14683
6.91423
7.40343
6.88852
6.90281
7.29637
6.9465
8.52863
7.05274
7.64303
6.95727
6.95477
7.03915
7.7856
7.05013
7.31569
7.01032
7.83141
6.93102
7.34754
7.14316
7.11177
6.92065
9.45044
7.02853
7.03169
6.96565
9.09531
6.94493
7.13294
7.14621
7.26789
6.92035
7.29068
7.43769
7.11591
7.19238
7.05412
7.15903
7.01435
8.59597
6.98427
7.27966
7.10077
7.18094
7.38774
7.1152
7.40755
7.19645
6.94669
6.93155
7.06575
6.935
6.95101
7.12574
6.90002
7.11815
7.03327
6.89738
7.10559
7.3331
6.81701
6.91922
6.85067
7.01032
6.94068
7.01622
7.10019
7.52903
6.96368
7.01639
7.36517
7.29109
7.00805
7.38766
6.76492
7.13389
7.15924
7.23637
7.17414
7.15263
6.84113
7.17675
7.29878
7.17403
6.96458
6.97025
6.82975
6.87466
6.95005
7.08452
6.91241
7.19251
6.98534
7.03424
7.10599
6.86866
7.22788
6.90003
6.85403
7.92856
6.93273
7.36713
7.46243
7.00411
7.17381
7.0286
6.8939
7.43106
7.0911
7.12083
6.98648
6.84976
6.97143
6.8165
7.14895
6.9019
7.12607
6.82885
7.31311
7.20851
7.0063
7.08672
7.14849
7.10665
6.92248
7.23331
7.02766
7.03702
6.89149
7.11681
7.41164
6.89865
7.02208
7.03614
6.93563
6.9673
6.87717
7.19896
7.25898
7.01877
6.92449
6.98738
7.26286
6.93816
6.87445
7.21096
7.75123
7.25701
7.27541
7.06019
7.0583
6.98048
6.90639
17
3.27127
142
SCALARS cell_frequency_modifier float
LOOKUP_TABLE default
6.78531e+17
1.4294e+15
9.52936e+14
3.11284e+14
9.07763e+13
1.07622e+13
5.5179e+10
1.01558e+12
9.64854e+13
7.25833e+15
1.22368e+12
7.52798e+13
1.0046e+09
2.25758e+10
5.8058e+12
3.12392e+13
6.1444e+11
5.93155e+10
6.94259e+08
7.03591e+06
8.76165e+08
1.31366e+10
2.07252e+11
2.76923e+10
8.19847e+08
3.93166e+07
4.8273e+06
9.6265e+06
2.80568e+08
1.58939e+09
7.62104e+12
9.11829e+08
2.46843e+07
2.18586e+06
84324.9
3.27084e+10
5.84671e+08
7.39169e+18
1.97456e+18
2.61837e+17
1.81906e+15
2.77579e+14
9.23819e+13
2.18031e+12
4.007e+11
6.12486e+08
8.6483e+07
1.55658e+10
9.63114e+10
1.89576e+13
5.98767e+13
2.11391e+14
1.69411e+17
1.75204e+18
1.23282e+19
10000
9.03479e+16
2.13122e+13
422515
4.24321e+12
2.86271e+16
8.44468e+06
2.94919e+08
2.20708e+14
6.8175e+10
1.0275e+12
4.71796e+06
6.48341e+07
2.29909e+11
5.88572e+07
776063
1.34724e+06
8.76254e+07
3.10731e+14
1.19093e+15
2.15292e+13
6.35925e+06
1.76507e+10
1.1602e+12
8.63167e+18
916445
9.7921e+17
1.25522e+08
8.26497e+06
74.5871
1.39924e+18
2.00866e+13
2.89435e+17
6.32524e+07
5.61176e+10
1.30917e+18
10000
8.76114e+15
8.74347e+10
7.40193e+15
4.11755e+11
5.21977e+10
6.22849e+11
9.57029e+14
2.07459e+10
1.00727e+11
2.13288e+11
656763
3.78321e+08
129935
2.58212e+10
6.1316e+07
57557.2
2.75802e+06
8.42398e+09
6.79217e+06
2.83083e+09
460414
9.1014e+06
5.76501e+09
279043
8.17313e+06
612829
9.10556e+07
9211.77
2911.88
1.11554e+06
9.16011e+08
15738.2
89112.4
173873
3563.32
1062.28
2.47861e+07
1.92302e+07
343166
9.18004e+06
7.5918
194443
11950.7
101127
16481.9
7471.17
28340.6
25.3061
2.89145e+07
1.90066e+07
2.24246e+06
556338
150.789
325105
8380.49
1.18632e+06
14.7246
203474
1.73032e+06
68468.2
3073.8
6870.2
20765.6
1432.4
22825.9
75527.5
59.1241
3055.46
554.888
2496.57
1395.55
2381.17
841.342
0.549704
27.2924
60101.1
1545.71
30.462
2.74004e+06
9088.41
518.033
1.03809
172.552
8264.28
2749.06
558.215
1275.62
2.72279e+06
3818.83
57.3371
207.008
44.1684
495.223
7627.38
39.8728
5.99435
142.432
1.46224
2202.15
127.13
114.963
202.945
175.522
4350.11
16644.2
33.7578
263.889
545.346
2003.46
13.2124
140.214
449.701
721.152
69.13
3357.84
36.4512
70.2825
5.17735
240.224
17.423
0.930323
50.1072
2.63761
106.146
48.2921
166.276
54.0535
130.864
5.33091
506.233
14.9164
1848.21
0.635761
0.900434
45.2619
52.0621
796.187
12.4362
1010.87
12.9909
0.909255
150.715
4.13012
2.22381
6.00453
10.9973
16.1737
9.20172
115.446
7.19039
177.137
1.32515
0.527368
23.1533
3.41149
445.358
102.885
47.1601
3.57273
774.403
101.862
2.07797
112.141
3.02022
250.524
8.13591
1.44748
10.0725
163.404
9.13559
1.92665
3.97878
0.839532
0.421381
319.134
7.71367
1.26162
2.59364
1.08054
1.70835
1.78178
2.22412
7.43673
6.19328
4.56662
4.7868
9.18915
1.04522
568.806
1.25175
3.56671
3722.81
1.62629
164.872
3.87341
2.05535
148.058
8.75602
6.69497
6.1586
5.39246
2.77977
1.37381
3.50086
0.863652
1.56056
1.08427
0.798875
13.9806
1.78709
1.9804
7.69192
5.7933
33.4696
0.868741
1.45768
0.710743
3.27877
2.00805
0.699669
178.448
1.94528
1.0196
0.763643
0.983079
0.604561
5.23687
3.05623
0.877607
121.644
0.959655
100.066
0.507391
199.864
0.350584
100.95
0.669086
0.821226
1.13978
8.72306
1.43884
106.81
0.70283
152.536
112.713
1
1
1
SCALARS cell_area_modifier float
LOOKUP_TABLE default
100
1.5711
2.94323
0.396704
0.421513
0.474982
0.591747
0.337169
0.440811
100
0.522886
100
0.321105
0.674675
1.03852
0.571671
0.306503
4.84892
0.452653
0.312182
0.316581
0.49233
0.499629
0.342306
0.378865
0.332183
0.290643
0.301027
0.318075
0.566863
100
1.73265
0.437947
0.557486
0.288157
100
0.455713
100
100
100
100
100
100
100
100
23.2414
100
100
100
100
100
100
100
100
100
100
100
100
100
100
100
0.978229
100
100
0.510993
17.2821
0.307903
0.408733
100
0.383172
0.286931
0.403835
0.387579
9.76812
100
100
0.478353
0.413751
100
100
100
100
0.531127
0.576561
0.368507
100
2.18123
100
0.347602
6.80808
100
100
100
1.10673
100
100
100
0.624652
100
1.4071
4.52349
100
0.30374
100
1.82656
100
0.581536
0.319583
3.38693
100
100
100
100
3.22488
100
0.76678
0.389821
0.302378
100
0.291901
1.4371
0.416306
100
0.471659
0.299689
100
0.289395
0.315101
100
100
0.539632
100
3.56614
0.349404
0.681496
0.424166
0.372582
100
0.366504
1.32417
100
100
0.733406
100
100
0.443713
0.310742
100
0.446653
0.758155
1.3507
100
0.354924
0.392088
0.325761
0.324194
0.48876
1.02276
0.411226
100
100
0.297047
2.60232
0.725511
0.374653
0.503361
0.426852
0.586597
2.11285
0.406269
100
0.607755
0.293171
0.912043
100
100
0.381006
0.353064
0.327343
100
1.50111
0.937413
0.294452
0.340576
0.322642
0.803337
0.360621
0.358701
100
1.29865
13.7551
0.309316
0.313634
74.8889
0.418894
100
100
3.07763
100
0.543987
100
1.77836
0.298362
0.432328
1.2741
0.33549
2.70683
0.596988
0.344053
0.468381
0.813028
0.338864
0.602324
0.495953
1.68922
35.4737
0.481773
11.4237
0.376747
0.385363
0.295744
0.458816
0.333829
6.18349
0.552912
0.899866
0.328941
0.843554
2.25418
0.435119
100
0.526974
0.330554
100
0.793875
0.364521
0.305115
8.53165
0.370533
0.351225
100
0.548413
100
0.876463
0.518861
0.613285
0.356803
100
100
0.950635
2.82008
100
100
1.18453
100
0.449633
100
0.648701
0.429573
0.661433
100
3.98817
1.87744
0.630496
0.833127
0.394383
100
5.22481
1.25046
0.749722
1.07154
1.53531
0.399053
1.46841
0.46196
4.23899
0.695562
0.562135
0.401429
0.888011
100
1.05477
0.710221
100
0.992636
100
0.854246
1.60859
100
1.12521
5.66387
1.64792
2.04863
2.41577
0.485241
0.636449
0.688458
1.20572
1.00747
0.465148
1.22769
0.717785
1.93123
1.16408
1.37832
3.76536
0.865212
0.514897
0.618916
2.33218
1.9882
0.642517
100
1.14431
0.667988
0.741474
0.362561
0.535346
2.50558
1.08885
0.775604
100
0.924554
100
0.507148
100
0.345818
100
0.655005
0.784633
0.822955
7.57303
0.964235
100
0.702815
100
100
1
1
1
SCALARS cell_Gaussian_modifier float
LOOKUP_TABLE default
6.78531e+15
9.0981e+14
3.23772e+14
7.84676e+14
2.15358e+14
2.26581e+13
9.32476e+10
3.01207e+12
2.18882e+14
7.25833e+13
2.34024e+12
7.52798e+11
3.12855e+09
3.34618e+10
5.59046e+12
5.46454e+13
2.00468e+12
1.22327e+10
1.53376e+09
2.25379e+07
2.76759e+09
2.66825e+10
4.14812e+11
8.08993e+10
2.16396e+09
1.18358e+08
1.66091e+07
3.19788e+07
8.82083e+08
2.80384e+09
7.62104e+10
5.26264e+08
5.63636e+07
3.92092e+06
292635
3.27084e+08
1.28298e+09
7.39169e+16
1.97456e+16
2.61837e+15
1.81906e+13
2.77579e+12
9.23819e+11
2.18031e+10
4.007e+09
2.63533e+07
864830
1.55658e+08
9.63114e+08
1.89576e+11
5.98767e+11
2.11391e+12
1.69411e+15
1.75204e+16
1.23282e+17
100
9.03479e+14
2.13122e+11
4225.15
4.24321e+10
2.86271e+14
8.63261e+06
2.94919e+06
2.20708e+12
1.33417e+11
5.94546e+10
1.53229e+07
1.58622e+08
2.29909e+09
1.53605e+08
2.70471e+06
3.33612e+06
2.26084e+08
3.18108e+13
1.19093e+13
2.15292e+11
1.3294e+07
4.26602e+10
1.1602e+10
8.63167e+16
9164.45
9.7921e+15
2.36331e+08
1.43349e+07
202.403
1.39924e+16
9.20883e+12
2.89435e+15
1.81968e+08
8.24279e+09
1.30917e+16
100
8.76114e+13
7.90025e+10
7.40193e+13
4.11755e+09
5.21977e+08
9.97113e+11
9.57029e+12
1.47437e+10
2.22676e+10
2.13288e+09
2.16225e+06
3.78321e+06
71136.6
2.58212e+08
1.05438e+08
180101
814311
8.42398e+07
67921.7
2.83083e+07
4604.14
2.82225e+06
5.76501e+07
363915
2.09664e+07
2.0267e+06
910556
31557.8
2026.22
2.67961e+06
9.16011e+06
33367.7
297350
1738.73
12313
3371.23
247861
192302
635926
91800.4
2.12886
556501
17536
238414
44237.2
74.7117
77327
19.111
289145
190066
3.0576e+06
5563.38
1.50789
732692
26969.3
11863.2
32.9665
268380
1.28105e+06
684.682
8660.45
17522.1
63744.9
4418.34
46701.6
73846.6
143.775
30.5546
5.54888
8404.63
536.273
3282.05
2245.66
1.09207
63.9387
102457
731.577
74.9798
27400.4
14954.1
1767
1.13821
1.72552
82.6428
7215.26
1581.06
3896.89
27227.9
2544
61.1652
703.029
129.687
1534.9
9494.62
110.567
16.7112
1.42432
1.12597
160.097
411.003
366.55
2.70995
419.014
43.5011
166.442
10.9688
2.63889
1002.5
20.0346
7.42954
469.945
1040.18
566.008
206.057
1240.51
61.0584
204.278
11.0537
295.469
51.4158
1.54456
101.032
1.56143
2.99226
100.238
14.5553
143.474
339.587
18.0254
1103.35
44.6827
298.894
1.14984
1.00063
137.599
61.7175
353.205
28.5812
10.1087
24.6519
2.7507
1.50715
5.20248
6.10064
19.6795
1.289
43.6497
26.199
1.15446
13.1113
1.77137
1.51193
1.0164
37.7529
9.56127
4.45358
1.02885
49.6091
1.26689
7.74403
1.01862
1.75425
1.12141
6.71707
2.50524
12.5419
3.36959
15.2283
1.63404
2.29067
1.02621
6.31056
1.00769
1.06846
3.19134
1.47636
1.00892
3.45947
1.0084
1.11271
4.46502
1.51465
16.0982
1.46103
6.56536
8.51539
22.8911
1.17703
5.68806
1.18675
5.02198
37.2281
1.63835
1.64872
4.5343
1.27773
1.48058
7.78168
1.18205
3.73719
2.63223
1.15068
2.8312
5.50061
1.25447
1.29429
1.07623
1.71746
11.3877
2.48973
1.02546
6.60774
4.20315
8.88882
1.00408
2.83102
1.14837
1.40588
1.00998
1.08895
1.78448
1.69995
1.52637
1.0299
2.71149
1.12929
2.09009
2.80684
1.13151
1.21644
1.03797
1.00066
1.00048
1.99864
1.01378
1.0095
1.0215
1.04664
1.38499
1.15186
1.49221
1.0681
1.00002
1.52536
1.12713
1
1
1
