# vtk DataFile Version 2.0
2D-vertex
ASCII
DATASET UNSTRUCTURED_GRID
POINTS 912 float
0.543641 -3.93023 0
2.9929 -3.72449 0
3.38244 -2.77574 0
2.35694 -1.70661 0
0.0902339 -1.55881 0
-0.629347 -3.04759 0
3.91054 -2.74209 0
4.48458 -1.88795 0
3.55249 -0.371649 0
2.50625 -0.68522 0
1.33281 0.575439 0
-0.355042 1.05239 0
-1.11975 -0.22219 0
-1.27499 -0.260463 0
-1.79384 -1.92984 0
-1.28458 -2.81511 0
5.05562 -2.04517 0
5.8673 -1.1646 0
4.03197 0.373422 0
3.76242 0.306804 0
2.88509 1.26687 0
1.82009 1.1801 0
1.16848 4.80851 0
0.314563 4.78416 0
-0.507146 2.90711 0
-1.71627 1.99502 0
-1.63248 0.0889263 0
-2.92358 -0.201627 0
-3.43659 -1.23502 0
-3.13513 -1.94615 0
6.93524 -1.15243 0
7.55627 -0.428137 0
7.37838 0.88438 0
5.16099 2.0558 0
5.62861 2.63574 0
3.28223 3.97106 0
2.51753 5.25901 0
1.63203 5.41638 0
0.707473 8.60112 0
-0.880702 8.64544 0
-0.559934 5.59567 0
-2.05953 4.65347 0
-3.11036 3.10519 0
-4.0664 3.13828 0
-4.80373 1.72597 0
-6.21247 1.41669 0
-6.4987 0.351077 0
-4.98354 -1.00202 0
7.79913 1.51155 0
7.4543 2.55245 0
6.7008 2.97283 0
5.95875 5.03569 0
3.60933 6.22739 0
3.53709 7.10006 0
2.0882 8.71986 0
2.62347 9.42598 0
-1.85151 10.0193 0
-1.75373 9.10669 0
-2.99219 7.76744 0
-2.66001 5.61646 0
-4.29245 5.9223 0
-5.67386 4.60214 0
-7.59025 3.10658 0
-7.44617 2.57272 0
8.36867 2.96501 0
8.36863 2.96751 0
6.87266 5.01581 0
7.30277 6.21824 0
6.02772 7.49141 0
6.23548 8.174 0
5.43954 9.19247 0
5.16735 9.70458 0
-2.57875 12.3169 0
-2.83453 11.982 0
-6.01061 9.06112 0
-5.33772 8.27708 0
-6.05791 6.89927 0
-5.9745 6.73546 0
-8.57574 3.61243 0
-8.42458 3.25986 0
9.89949 3.28167 0
10.211 4.23756 0
9.40159 5.21662 0
10.5667 5.64854 0
10.2507 7.17114 0
10.4338 7.88155 0
9.60463 12.5167 0
10.6063 14.6012 0
-9.60505 14.0757 0
-9.6047 14.0732 0
-9.98524 8.19937 0
-9.69103 7.68139 0
-10.0316 7.04518 0
-9.28694 5.95424 0
-10.0979 4.69443 0
-9.63391 3.71551 0
3.92544 -5.5735 0
5.12463 -5.0123 0
5.95678 -4.59721 0
8.28892 -2.97385 0
9.56257 -1.52102 0
10.863 0.833829 0
10.9539 1.00533 0
11.6389 2.08746 0
12.3962 4.02743 0
12.5943 4.81661 0
12.7189 8.34017 0
13.2004 15.0399 0
-13.1941 14.515 0
-12.5858 8.14776 0
-12.4961 6.87101 0
-12.1116 4.3305 0
-11.2271 2.39524 0
-10.3597 1.30157 0
-9.74957 0.584201 0
-8.83191 -0.732129 0
-6.88099 -2.8497 0
-4.79165 -4.2278 0
-2.67952 -5.19797 0
0.332512 -5.97885 0
12.5602 9.82174 0
8.46849 9.98043 0
-12.8688 10.6082 0
-9.97081 11.4555 0
-0.252777 2.56924 0
1.03991 2.67786 0
-1.80568 4.62355 0
-1.03966 2.89547 0
4.53723 4.18186 0
4.9329 5.10715 0
0.39589 10.2048 0
0.178732 9.09417 0
-1.07983 6.94566 0
-2.26213 6.64389 0
5.95776 5.03797 0
5.10411 7.00834 0
4.12366 7.50279 0
4.12252 8.86624 0
2.09592 10.4473 0
2.09392 10.4458 0
-2.34458 10.242 0
-3.90452 8.46724 0
-3.45681 7.77958 0
-4.42021 6.50875 0
1.45816 -0.0674748 0
0.0189855 -1.07715 0
6.55226 1.12164 0
5.47659 -0.428092 0
5.15897 2.05726 0
3.12982 2.85087 0
-8.85749 9.84158 0
-5.828 9.75639 0
3.12732 2.85091 0
1.69128 3.51584 0
-9.30077 5.8935 0
-7.8882 5.29195 0
-0.659988 -3.06362 0
-1.04579 -5.75332 0
14.9649 31.4064 0
17.3758 31.5471 0
1.35151 -3.57837 0
1.4452 -2.12173 0
2.5315 7.47461 0
1.36499 6.44232 0
8.2941 9.50184 0
5.43974 9.19498 0
8.87283 20.2536 0
-0.048404 12.1467 0
-2.57463 -2.19755 0
-3.25471 -4.96247 0
-4.22688 0.809704 0
-5.11146 -0.379965 0
-5.44144 -3.85418 0
-4.39177 -1.39202 0
0.435166 6.9081 0
-0.473998 6.47073 0
9.37293 5.07524 0
7.79223 4.2667 0
5.68794 -1.69933 0
7.43195 -3.67479 0
1.88735 -6.03113 0
1.90007 -4.00415 0
-6.06095 -0.266485 0
-7.6417 -2.16189 0
-5.26708 3.50587 0
-6.58606 2.25212 0
7.641 1.0185 0
10.1247 -0.630584 0
-12.3664 5.71876 0
-9.31156 5.91344 0
12.8505 6.86298 0
10.7563 6.65854 0
-2.67826 2.16907 0
-3.57991 0.803802 0
-9.32441 0.0184403 0
-6.56977 1.68182 0
-3.48636 5.41903 0
-4.2334 3.43141 0
-6.72247 5.48415 0
-6.29796 4.68843 0
8.27202 6.39425 0
8.47346 6.87748 0
-0.87218 11.9867 0
-0.641584 10.8751 0
12.5647 9.83077 0
9.89727 11.1105 0
9.76691 13.3998 0
1.78477 11.0127 0
7.85496 8.14386 0
9.06429 8.86116 0
-7.20244 6.99332 0
-7.54554 7.74452 0
-2.32552 14.2831 0
0.679979 13.4565 0
-9.90711 11.9532 0
-4.05566 11.8187 0
9.06293 8.86327 0
12.5825 9.36708 0
-10.6987 13.1029 0
-13.2479 13.527 0
-12.6409 9.12599 0
-9.11937 9.40112 0
12.6643 17.7861 0
10.0351 16.1 0
8.14176 10.4203 0
6.01029 10.5964 0
-9.11942 9.3986 0
-7.23517 8.71514 0
2.14067 13.9838 0
3.89449 12.345 0
-4.34952 10.2319 0
-3.5792 9.57725 0
4.61719 12.0911 0
3.71809 10.5519 0
12.9035 11.5152 0
10.1016 11.6493 0
-2.93941 13.8591 0
-4.50446 12.7797 0
-13.4051 26.4892 0
-0.0575201 15.0593 0
-6.42152 10.3032 0
-4.37335 12.0344 0
-12.7213 9.83965 0
-9.31457 10.438 0
5.73205 16.1541 0
7.9111 14.2367 0
-1.21272 13.8256 0
-0.701245 12.1897 0
-10.3553 17.3515 0
-13.5109 16.3957 0
15.9289 38.0455 0
2.06433 15.0705 0
-3.04043 16.5061 0
-10.2916 17.7449 0
-10.6531 12.4308 0
-13.1 11.6389 0
-6.52293 14.0876 0
-5.96324 12.9878 0
-6.29821 11.0458 0
-7.113 11.9775 0
13.1375 13.2112 0
10.5546 13.9591 0
-11.1714 18.8835 0
-14.1014 18.8933 0
5.79644 11.6964 0
4.62111 12.0765 0
9.96099 15.2748 0
7.96692 14.8152 0
3.71826 13.4881 0
6.36402 15.5315 0
-2.14293 15.7329 0
-0.630417 16.0521 0
14.0502 20.2642 0
11.3634 21.3329 0
0.0908634 15.0297 0
1.03223 15.7418 0
12.1004 23.0904 0
3.69103 15.6274 0
13.002 12.3474 0
9.89778 12.8851 0
-8.37059 13.5762 0
-8.39671 12.7085 0
-9.21266 10.7762 0
-7.11647 11.6028 0
-9.93281 16.9531 0
-6.14062 15.8768 0
13.7939 43.3349 0
14.7571 44.7824 0
1.53814 13.3496 0
2.33822 11.8132 0
-3.93556 15.4953 0
-3.83117 14.3016 0
-13.3282 15.6143 0
-10.1316 16.2927 0
-0.351319 17.5796 0
-0.442503 17.5174 0
7.46316 12.5952 0
7.03876 13.5037 0
8.3807 10.9319 0
7.32797 12.3167 0
-11.1224 18.2899 0
-13.7548 17.2357 0
-2.7112 16.5034 0
-1.74876 17.9319 0
1.32836 16.8575 0
2.97049 16.8453 0
6.00234 13.6693 0
5.7265 14.266 0
-7.41608 17.2145 0
-7.19531 17.6524 0
-9.04704 14.8266 0
-6.34816 15.0547 0
3.67207 15.5818 0
4.44017 14.3455 0
-10.5834 20.823 0
-3.89116 17.7744 0
14.5653 21.3257 0
12.266 22.2692 0
-16.3234 25.7419 0
-13.9538 25.7385 0
8.15076 16.6143 0
7.28591 15.6304 0
12.6723 18.0745 0
8.99192 19.4177 0
3.7438 18.1342 0
5.55052 18.79 0
1.01203 19.4807 0
3.1282 18.5868 0
-1.00409 25.3773 0
-3.62927 24.0429 0
-3.24384 22.3698 0
-4.5176 19.6602 0
-6.14674 14.7786 0
-4.02135 14.1903 0
-9.77014 19.7205 0
-8.21846 18.6356 0
7.60235 23.3809 0
6.90168 20.5736 0
-13.2071 14.8651 0
-9.40093 15.346 0
-9.36291 15.4445 0
-7.16623 16.4522 0
-0.334328 19.7064 0
-0.0990333 19.406 0
14.6173 30.4802 0
2.05804 22.8397 0
16.9425 27.2028 0
14.8712 27.4671 0
-15.0557 20.9625 0
-12.337 21.5811 0
-5.33743 16.2326 0
-5.16455 17.4543 0
7.64545 17.4346 0
6.48616 17.4153 0
1.10708 17.2159 0
1.70636 18.2855 0
10.1977 15.7469 0
13.0945 16.0184 0
12.6357 17.9067 0
8.15565 16.9371 0
-11.9286 22.5408 0
-4.49639 19.9766 0
-2.23502 18.9209 0
-3.53928 18.7878 0
3.56298 23.2241 0
4.1693 22.5585 0
-5.77436 17.9897 0
-5.64947 19.1019 0
3.7517 17.6193 0
5.75482 16.6886 0
-1.97235 22.2219 0
-0.375129 23.57 0
1.98141 28.3679 0
12.2957 30.4058 0
-11.2184 43.7411 0
-12.5506 44.5694 0
-5.33778 46.8946 0
-2.62523 24.8913 0
-14.304 19.3027 0
-12.0898 21.1116 0
-1.83758 19.6106 0
-3.55761 20.6097 0
-7.43647 20.7272 0
-5.92586 21.0203 0
13.1635 26.3297 0
11.7885 29.2658 0
4.74003 20.9174 0
6.38175 21.2533 0
11.3328 21.438 0
8.37809 22.2616 0
13.0876 18.7631 0
11.0695 20.9507 0
-13.528 24.8242 0
-3.80709 21.8129 0
16.2701 25.2598 0
14.4476 26.5025 0
2.13354 20.5398 0
3.31459 19.7618 0
-15.688 22.568 0
-13.5623 23.7011 0
-1.88987 26.9898 0
3.95062 24.3916 0
0.189434 21.0666 0
1.75339 21.4772 0
-8.21013 18.7383 0
-6.90208 19.668 0
8.02714 18.5658 0
6.51416 19.3982 0
-1.51318 21.4391 0
-2.21173 20.3258 0
12.6331 17.9168 0
8.13127 18.2478 0
-2.69376 24.5719 0
-1.44885 23.3433 0
-5.8389 21.5963 0
-4.85212 22.1854 0
-4.61073 24.2886 0
-5.19696 23.5505 0
-14.107 18.9017 0
-10.5193 20.4607 0
5.35501 24.4614 0
5.94994 23.351 0
-0.307103 29.5742 0
4.83209 47.6067 0
-8.22925 21.6896 0
-7.90811 22.7696 0
2.16713 48.7844 0
2.04088 50.429 0
-10.1983 28.0107 0
-7.95675 30.2224 0
9.48646 20.7177 0
8.25509 21.9261 0
15.0433 22.3483 0
12.5659 23.4678 0
5.67196 22.791 0
6.53563 21.6427 0
2.17475 21.1341 0
3.92553 21.7355 0
3.33656 24.9961 0
5.26334 28.4734 0
4.55566 20.1996 0
5.64901 19.142 0
1.62883 23.2526 0
1.89601 24.4836 0
12.796 18.3387 0
9.46319 20.5741 0
-6.20224 36.5186 0
-4.67128 31.8146 0
-13.8778 28.1563 0
-16.453 28.0184 0
-0.212472 21.5503 0
0.257048 22.8966 0
-7.30538 22.9221 0
-6.98471 23.6751 0
-9.7601 20.0973 0
-7.43636 20.7247 0
8.87483 25.7359 0
9.84048 23.9605 0
-16.1949 24.4182 0
-13.7797 24.4957 0
-7.41539 24.4536 0
-7.39825 26.0339 0
4.46516 32.5101 0
8.59693 31.2712 0
-13.9885 30.1878 0
-9.84375 29.0041 0
8.72178 26.215 0
5.76025 27.3988 0
2.40551 27.988 0
1.35156 26.2374 0
-4.83869 26.0601 0
-4.73655 26.1194 0
14.8921 42.2176 0
16.3362 43.0404 0
-0.114649 24.5635 0
1.23303 25.0341 0
-9.49033 23.6551 0
-9.62528 24.1119 0
5.61198 37.4851 0
5.76388 43.2886 0
-3.31476 25.7627 0
-2.75521 26.8699 0
14.6213 27.8905 0
12.4204 28.1003 0
-8.85917 45.7174 0
-9.61938 47.4263 0
-10.0315 44.3857 0
-7.40566 35.4257 0
10.0953 23.4442 0
9.66174 22.4875 0
-10.6126 26.1702 0
-9.10592 24.6882 0
12.9057 25.7757 0
10.5169 25.3687 0
-2.4703 37.4177 0
-0.620091 31.1349 0
-9.86719 21.6371 0
-10.3475 22.6567 0
17.1767 28.7585 0
15.1544 28.8442 0
15.4708 23.2247 0
13.2029 24.572 0
15.7619 35.5938 0
12.7008 34.335 0
-1.85361 29.5738 0
-1.48082 27.9209 0
-14.091 35.9003 0
-16.0383 35.8767 0
3.42412 25.9126 0
2.23257 26.6763 0
7.90846 30.2631 0
7.23003 27.204 0
5.92897 25.0838 0
4.92932 26.0292 0
-6.07598 29.2602 0
-5.48189 29.8673 0
8.07872 24.13 0
7.8881 24.5855 0
5.97876 30.1056 0
6.12484 32.6601 0
-13.7871 28.3427 0
-10.8176 27.8802 0
16.4332 37.7026 0
18.2415 38.2467 0
-8.85179 27.0913 0
-5.95787 28.5444 0
-12.1933 38.2796 0
-9.87811 34.1877 0
3.20653 31.882 0
2.62751 32.25 0
-16.39 26.9305 0
-13.6213 26.9419 0
-16.5057 29.4662 0
-14.4813 29.4486 0
-0.114736 40.5338 0
[...]
CELL_DATA 457
SCALARS cell_division_count float
LOOKUP_TABLE default
1
0
1
0
0
0
1
0
0
1
1
1
1
1
1
1
0
1
1
1
1
1
1
0
1
1
1
1
1
1
1
1
2
4
3
1
1
0
0
1
1
0
0
0
1
2
3
0
1
0
0
1
1
1
1
1
0
0
3
0
1
2
3
1
1
1
1
1
1
1
2
2
1
1
1
1
2
1
1
1
3
1
1
2
9
1
1
1
1
1
1
1
1
1
1
1
1
1
1
1
1
1
2
3
5
2
1
3
5
2
2
2
5
3
2
4
2
3
5
5
6
3
3
6
3
4
6
9
3
5
4
4
8
5
6
6
5
4
5
14
5
5
5
7
5
4
6
4
10
5
3
4
6
6
6
7
6
6
11
7
8
7
6
7
8
17
11
6
8
9
4
7
8
13
6
7
7
8
8
3
6
12
10
11
9
7
11
13
9
14
8
11
10
11
9
9
5
14
6
10
8
13
10
10
8
11
6
10
11
14
8
11
13
11
9
12
9
8
9
11
13
9
11
6
16
13
11
12
11
13
8
13
13
12
15
14
10
8
12
13
14
11
12
11
16
9
14
15
14
12
7
9
14
15
11
14
14
14
13
13
12
12
8
12
16
14
8
9
16
14
15
15
14
14
13
10
14
14
14
14
14
15
14
8
15
9
9
14
13
13
14
12
12
10
12
12
14
15
7
13
13
15
11
14
14
14
8
13
15
12
15
15
15
15
13
14
15
16
12
15
16
9
11
14
15
14
14
16
14
14
11
7
11
13
17
14
15
13
16
15
13
16
15
12
15
14
17
13
10
9
14
17
13
15
14
15
10
16
15
15
14
15
14
13
12
14
14
16
16
15
15
15
15
15
16
8
16
15
15
16
13
14
10
16
16
14
11
16
15
14
15
15
15
9
16
15
14
12
17
14
15
14
10
15
17
17
14
17
8
10
11
14
15
11
16
15
15
16
17
15
16
15
15
15
16
16
15
15
15
16
16
16
17
15
16
16
15
17
14
16
17
11
11
12
13
15
15
17
17
17
16
14
17
15
17
15
17
SCALARS cell_time float
LOOKUP_TABLE default
2281
2.22229e+13
2301
4.48239e+13
2.67348e+11
1.25633e+10
2311
2.68224e+09
9.19769e+11
2301
2301
2291
2261
2311
2231
2271
1.22829e+06
2311
2281
2311
2311
2211
2251
26093.4
2311
2311
2311
2311
2311
2201
2261
2201
2161
1901
2051
2151
2291
1.00108e+18
2.94533e+15
2261
2251
107393
3655.76
2367.34
2241
2141
1941
2358.01
2251
5009.01
2626.18
2231
2271
2281
2291
2261
1.12104e+13
23476.3
1731
4347.96
2261
2181
2001
2311
2311
2311
2311
2311
2311
2311
2191
2071
2311
2301
2301
2301
2131
2291
2291
2291
1431
2281
2281
2141
1061
2281
2271
2271
2261
2261
2261
2261
2261
2251
2251
2251
2241
2231
2231
2211
2201
2201
2191
2061
1881
2161
2151
2001
1781
2141
2141
2141
1431
1721
2131
1751
2071
2061
1791
1751
1641
2021
2001
1631
2001
1721
1731
1421
1941
1791
1921
1921
701
1731
1621
1651
1851
1631
1821
651
1791
1791
1781
1481
911
1751
1521
1501
1151
1731
1721
1721
1721
1711
1651
1451
1641
1631
991
1061
981
1441
1031
1371
1441
81
1121
1521
1511
1061
1501
1481
1481
331
841
1311
1451
1171
1441
1431
1161
851
1301
1061
1381
1371
1001
791
481
191
1121
1171
1291
881
1061
861
1261
651
1241
1241
641
661
1211
1181
1171
1171
1161
1151
1131
671
1121
1111
391
1101
321
551
1061
841
1061
1061
781
1061
1051
1031
211
211
1001
1001
991
771
981
531
521
491
491
691
921
141
901
891
61
891
511
291
71
861
651
501
191
851
541
631
211
531
51
531
531
531
601
771
591
591
221
551
171
271
701
701
151
691
121
81
671
471
661
141
661
651
651
1
651
171
651
641
511
451
631
511
511
601
151
591
581
571
551
551
171
401
541
541
531
531
141
531
531
531
341
521
251
511
111
101
511
251
511
331
501
221
491
491
71
481
481
311
131
471
181
61
301
141
51
441
201
431
21
411
401
391
201
111
381
151
371
361
181
361
1
341
341
181
341
21
331
131
331
71
161
91
141
311
311
161
301
31
51
131
271
171
131
251
101
251
121
251
131
221
221
221
221
211
211
211
211
91
91
111
201
201
1
191
31
181
181
181
171
171
171
171
71
161
161
161
161
161
61
11
151
1
141
141
141
141
141
141
11
131
1
131
1
121
121
121
111
111
111
111
31
101
101
91
91
91
81
81
71
71
71
71
61
61
61
51
51
51
31
31
31
21
21
11
11
1
1
1
1
1
1
SCALARS cell_area float
LOOKUP_TABLE default
3.24161
3.29971
3.29309
3.35569
3.351
3.34333
3.32652
3.37417
3.34838
3.28137
3.33635
3.28196
3.38627
3.31901
3.30559
3.32953
3.39808
3.28869
3.34625
3.39734
3.39189
3.33926
3.3389
3.37157
3.35824
3.37589
3.43977
3.40233
3.39116
3.32913
3.24639
3.2966
3.35054
3.33637
3.44558
3.24935
3.34479
3.25227
3.26072
3.24821
3.23628
3.27739
3.26129
3.27786
3.21939
3.28376
3.25557
3.26248
3.25853
3.24759
3.26732
3.27291
3.2161
3.25678
3.24441
3.24185
3.20919
3.21652
3.26763
3.19556
3.2458
3.3058
3.26835
3.28007
3.33697
3.28453
3.39878
3.35168
3.27959
3.35674
3.45205
3.35176
3.35684
3.28649
3.24814
3.27445
3.34142
3.35109
3.23081
3.22173
3.21988
3.25826
3.33503
3.33069
3.36927
3.22225
3.29625
3.25189
3.36996
3.28708
3.22411
3.2034
3.21555
3.3035
3.25098
3.24398
3.25808
3.32374
3.26264
3.29998
3.28929
3.26284
3.40155
3.2317
3.29387
3.2397
3.32825
3.3856
3.29119
3.27832
3.25806
3.27137
3.27435
3.29281
3.24525
3.3162
3.3565
3.40449
3.25459
3.42603
3.30211
3.34943
3.27103
3.34766
3.40642
3.26207
3.44239
3.39717
3.21562
3.28002
3.3348
3.20672
3.28703
3.37031
3.31569
3.35421
3.36618
3.2651
3.36591
3.30758
3.24915
3.28161
3.31545
3.27398
3.24033
3.34841
3.4002
3.26968
3.37086
3.31391
3.30011
3.23386
3.37268
3.36095
3.38456
3.38746
3.33895
3.3086
3.35544
3.27627
3.26059
3.41191
3.28891
3.32007
3.36886
3.39598
3.36594
3.32853
3.29908
3.36388
3.27157
3.32572
3.43155
3.28955
3.27876
3.23217
3.36165
3.36991
3.39069
3.23935
3.29839
3.31081
3.43428
3.38782
3.39063
3.31719
3.38351
3.39613
3.24089
3.32175
3.27768
3.40938
3.40221
3.29021
3.35664
3.2712
3.23815
3.29241
3.24329
3.34256
3.26288
3.33176
3.41872
3.35314
3.30306
3.38938
3.28999
3.34485
3.3833
3.36319
3.31015
3.39061
3.37955
3.35266
3.26271
3.31164
3.34403
3.28004
3.37209
3.36975
3.4404
3.35194
3.39744
3.28113
3.3586
3.28798
3.39644
3.32651
3.30352
3.36681
3.22163
3.35514
3.42212
3.26323
3.34122
3.40454
3.42236
3.28515
3.38638
3.38311
3.28131
3.36447
3.26952
3.30553
3.26095
3.33664
3.38075
3.29668
3.30735
3.3162
3.29773
3.25322
3.30946
3.35947
3.30044
3.38455
3.30501
3.34456
3.39385
3.33661
3.32904
3.30597
3.23906
3.35603
3.35554
3.38161
3.2775
3.28546
3.35126
3.35747
3.32468
3.35077
3.37406
3.37442
3.37367
3.30793
3.33979
3.3393
3.35656
3.3425
3.26451
3.31866
3.35543
3.26607
3.37336
3.26311
3.30429
3.29053
3.33221
3.33742
3.33923
3.30782
3.35277
3.28847
3.37669
3.34849
3.3575
3.37806
3.31556
3.37377
3.32709
3.36625
3.30963
3.33962
3.33683
3.32012
3.26519
3.38517
3.35458
3.30765
3.33627
3.29195
3.30414
3.32957
3.37615
3.28507
3.39658
3.3576
3.34946
3.34065
3.31653
3.2782
3.29285
3.32385
3.32556
3.33658
3.36298
3.26708
3.36537
3.27506
3.29217
3.28538
3.25187
3.31321
3.29293
3.35489
3.33819
3.27602
3.35333
3.30565
3.30201
3.27578
3.27662
3.299
3.28189
3.3281
3.35712
3.312
3.23629
3.34696
3.39928
3.29937
3.32264
3.31847
3.29396
3.32622
3.30861
3.36043
3.31549
3.33046
3.29676
3.28348
3.35143
3.31984
3.3382
3.32801
3.30737
3.30298
3.34557
3.31483
3.35811
3.30978
3.35564
3.33713
3.29096
3.28333
3.356
3.26188
3.3288
3.33494
3.30598
3.29453
3.30249
3.3468
3.31405
3.3135
3.29757
3.33898
3.34551
3.28726
3.29137
3.32223
3.26636
3.32045
3.27294
3.34284
3.29234
3.30219
3.3159
3.29102
3.27429
3.29912
3.33534
3.33973
3.35914
3.32668
3.3172
3.35211
3.2934
3.29632
3.29104
3.3119
3.3314
3.30016
3.31663
3.2812
3.33915
3.31147
3.3634
3.31478
3.27028
3.32938
3.33855
3.35079
3.33014
3.32057
3.32596
3.31422
3.30859
3.33487
3.3119
3.31392
3.34677
3.30849
3.32481
3.32546
3.28888
3.27956
3.25889
3.31611
3.32699
3.29436
3.26428
3.32229
3.31975
3.30767
3.32499
3.31061
3.31912
3.2952
3.27777
3
3.26284
3.36618
312
0
0
SCALARS cell_perimeter float
LOOKUP_TABLE default
6.9296
6.94407
6.96282
7.20055
7.13054
6.81967
7.07921
7.65626
6.93723
6.92632
7.39058
7.00364
6.79998
7.2451
7.04575
6.7957
7.1789
6.97016
6.9253
6.99067
6.94168
7.27303
7.24444
7.58577
7.59742
6.95605
7.9932
7.12726
6.9013
7.07146
6.94983
7.05312
8.19368
7.03372
7.08488
7.34383
7.90627
7.52411
7.83227
7.64366
8.27706
8.67577
8.19987
7.77231
7.3858
9.6143
8.03494
7.66898
8.05975
7.66497
8.13909
8.45707
7.78911
8.07673
7.67589
7.21779
7.44017
7.39309
8.63786
7.32659
7.73339
9.7031
8.63187
7.03682
7.15203
7.24336
6.90467
7.08301
7.18372
6.86675
7.80855
7.06654
7.17029
7.07734
7.24044
7.21955
7.79699
7.2716
6.93642
7.87612
8.24077
6.79096
7.02005
7.87181
7.55655
7.98473
6.82412
7.98608
7.07839
6.99976
7.80217
7.31477
7.65775
7.13261
7.93832
7.98136
7.37154
6.94669
8.23632
7.19012
7.17266
6.94688
7.12551
8.05795
7.20647
7.03419
6.85365
7.38818
7.31368
8.60839
8.65424
8.59481
10.1072
7.21588
7.24466
7.06198
6.91848
7.44181
8.26416
7.03788
7.67534
7.27454
8.97319
7.20571
7.25072
8.39958
7.14424
7.06472
7.7236
7.02713
7.28925
7.7939
7.86232
7.3645
7.28864
7.08949
7.04664
7.91587
6.9204
7.22291
8.21101
6.90911
7.57984
7.58352
7.31855
7.22446
7.27593
9.11332
7.09815
7.32275
7.29499
8.05477
7.07337
7.17927
6.834
6.85283
8.02258
7.00635
7.58896
7.76983
7.53832
6.88514
9.7387
7.33974
7.06866
7.05503
6.9807
7.19071
7.42439
7.17662
9.36661
7.88336
7.11054
7.44678
7.26971
8.00013
7.00818
7.09894
7.12157
7.9856
10.7681
6.90408
7.04998
7.1026
6.88944
7.36638
6.89737
6.92012
7.29814
6.80349
9.11952
7.01973
7.44907
7.19743
6.9337
7.14712
8.1333
7.21125
7.40352
6.98219
8.20039
7.03051
7.25134
7.08108
7.09273
6.89821
10.2159
7.0584
6.97227
6.96113
9.70265
6.94218
6.98681
7.09353
7.34045
7.00519
7.55094
7.86923
7.06452
7.07272
7.0573
7.07859
7.02933
9.2499
7.20033
7.65876
7.0806
7.1446
7.41624
7.16206
7.56741
7.17779
6.99003
7.20532
7.22792
6.91381
7.01903
7.07731
6.91681
7.10185
6.90279
6.95012
7.43638
7.13977
6.90454
6.94894
6.82544
7.11039
6.95378
7.02169
7.43261
7.88523
6.89816
7.06708
7.20428
7.22102
7.18258
7.47578
6.87929
7.18076
7.34868
7.49227
7.28996
7.20417
7.05743
6.93322
7.76026
7.56522
7.17121
7.16141
6.95407
6.88398
6.95617
7.52216
6.96561
7.40517
7.02763
7.23748
7.31468
6.85206
7.36252
6.8385
6.97244
8.34449
6.83265
7.36539
8.00399
7.27632
7.09629
7.07572
6.98972
7.57789
7.26559
7.30051
7.12054
6.91832
7.10321
7.07489
7.60137
7.04224
7.13964
6.9259
7.77217
7.16009
7.13948
7.14274
7.51226
6.98131
7.01298
7.66044
6.98425
7.41418
7.02766
6.81438
7.14628
6.99873
7.0256
6.99936
6.84988
7.21219
6.8192
7.12841
7.3403
6.97318
6.87445
7.17693
6.78754
6.99015
6.8329
7.09099
7.19273
7.15691
7.30376
7.00574
6.96908
6.94206
7.41682
7.29841
6.93107
7.0145
7.06478
6.91439
7.16448
7.832
7.06046
7.11636
6.85184
6.92913
7.32079
8.33877
7.16729
7.31616
7.48216
7.02184
7.10428
6.75897
7.33179
7.00693
6.93906
6.88391
6.90752
6.91943
6.74546
7.40024
7.51683
7.23372
7.04084
6.83251
7.53427
7.00148
6.77844
7.04577
6.85216
6.851
6.9445
7.26486
7.68651
6.95054
7.10405
6.98723
8.05074
6.87422
7.49948
6.81412
6.86506
6.98227
7.19994
6.95413
6.74363
6.94326
7.09601
6.97632
6.94455
7.95392
6.97705
6.88642
7.13772
7.23987
6.89902
6.85103
6.96727
6.81663
7.15408
6.93391
6.96922
6.98091
6.89118
7.21103
7.10732
7.34284
7.58336
6.95846
7.08819
7.28266
7.17622
6.91662
7.01892
7.22078
6.93752
6.92132
6.9418
6.9617
6.82644
7.05542
7.08705
6.83094
6.86151
7.4911
6.83754
7.0011
6.85018
7.15176
7.42111
6.96659
6.98622
6.89775
6.81349
7.04496
6.98251
7.04774
6.89308
7.18606
7.35887
7.52554
7.44118
6.86388
6.92778
7.00607
6.90659
7.03526
7.0723
17
3.26952
3.37367
291
0
0
SCALARS cell_frequency_modifier float
LOOKUP_TABLE default
1.54254e+18
7.4152e+15
9.10705e+15
1.15475e+15
3.27981e+14
6.21178e+13
8.95663e+11
8.78551e+12
4.8816e+14
2.55793e+16
1.00912e+13
6.75121e+14
1.98184e+10
4.77901e+11
8.61233e+13
2.28417e+14
3.83914e+12
1.7832e+13
1.49304e+10
2.08167e+08
1.87552e+10
2.59761e+11
3.1151e+12
2.79483e+11
1.4882e+10
1.01416e+09
1.3503e+08
3.33172e+08
7.37021e+09
4.89483e+10
6.67809e+13
4.19609e+10
6.21608e+08
7.28122e+07
3.91636e+06
1.13703e+12
1.90921e+10
9.32826e+18
2.96733e+18
4.99604e+17
6.94338e+15
1.42563e+15
5.36176e+14
2.06991e+13
4.53121e+12
6.02567e+10
5.48736e+09
6.06241e+11
3.06637e+12
3.07766e+14
8.1562e+14
2.36551e+15
6.23734e+17
3.85988e+18
10000
10000
1.92178e+17
1.43169e+14
3.75462e+07
8.5549e+13
1.44069e+17
4.12671e+08
1.66427e+10
1.80075e+15
1.0739e+12
6.49092e+13
1.5517e+08
2.07592e+09
3.69859e+12
1.43142e+09
2.59925e+07
6.39895e+07
2.96291e+09
1.76833e+16
6.01803e+15
2.07719e+14
3.24106e+08
2.59225e+11
2.68587e+13
1.38444e+19
4.15582e+07
1.92121e+18
3.64606e+09
2.53476e+08
2984.3
3.35537e+18
3.73356e+14
9.3435e+17
1.74253e+09
1.03137e+13
1.98016e+18
10000
5.50389e+16
2.90625e+12
2.34078e+16
1.10763e+13
7.827e+11
9.07901e+12
8.48503e+15
8.34117e+11
4.60234e+13
2.96135e+12
2.54051e+07
1.05706e+10
1.969e+07
4.74872e+11
2.79557e+09
2.14482e+06
1.59242e+09
1.63932e+11
5.08109e+08
1.30296e+11
2.26421e+07
9.10603e+08
2.39582e+11
1.25143e+07
3.47952e+08
1.92808e+07
2.96276e+09
374121
346469
6.05617e+07
4.6478e+10
616711
3.41725e+06
1.67029e+07
123437
38538.4
1.74801e+09
1.15428e+09
2.1581e+07
3.5799e+08
10435.6
7.10571e+06
862897
3.6991e+06
608411
627127
1.0622e+06
1645.12
1.04698e+09
1.27343e+09
1.72614e+08
3.93432e+07
100.802
1.18794e+07
432438
9.79444e+07
250.456
1.19444e+07
1.16868e+08
7.36763e+06
108190
249562
862126
79938.4
1.74823e+06
3.90392e+06
3798.14
259841
45245.8
108509
3.11717e+06
111657
25598
0.347764
658.965
3.98318e+06
178220
948.744
2.11903e+08
772780
16009
1715.81
7678.72
991012
124125
24548.5
42882.6
1.16213e+08
453766
6071.37
6690.11
1083.04
21038.2
343701
866.959
102.754
106.998
0.9128
1.62743e+06
3255.37
4908.46
11261.2
6054.72
251341
1.37601e+06
9104.1
17218.7
16386.4
210343
85.3068
3839.07
25036.6
53363.4
1826.71
6.64346e+06
738.284
2319.97
138.131
36846.4
421.395
5.75956
1972.63
164.872
85.4815
2649.69
121474
1540.58
3695.1
112.033
17077.2
306.139
1.99718e+06
1.48471
375.55
1030.77
1604.98
45019.4
298.729
103787
309.793
11.2249
3950.33
64.0988
32.1731
128.358
108.981
302.099
359.968
105.616
95.6354
5499.36
3.03882
100.912
896.629
148.056
712.614
3.37646
2678.65
130.38
65516.5
3.35121
7.35631
2.81427
38.9328
72.7865
168.115
15.4085
324.515
12.9623
140.397
226.372
50.2581
0.971861
2.55056
19858.1
5424.07
0.649002
22.1029
1.37806
0.474377
49.0906
5.28981
109.145
1.80023
108.708
234.334
594.504
0.578096
33112.4
4.73665
34.629
396230
9.32585
135.321
616.515
2148.69
9.30854
82.2183
5.2239
259.472
17.9443
2593.47
15.2779
62.9072
5.42778
3.59973
21.1479
7.8601
205.19
12.0516
2.14536
63.2614
43.8538
166.221
531.936
14.2026
2.33143
50.3536
0.776665
62.7759
52.4316
11.4601
5.56901
340.678
21.8443
1.72726
20.8446
28.8673
1.00715
100.839
131.04
2.8626
0.947343
14.0685
0.411907
105.46
2.4117
125.668
19.2991
164.762
145.394
5.56627
9.05072
6.12367
4.20936
2119.89
3.72528
2.43021
6.08689
124.89
1165.56
27.0407
320.081
8.27172
0.541207
4.28456
247.69
5.46511
2.019
3.03718
9.95857
4.70669
35.4095
1.19898
1.98895
0.530668
3.90771
2.46062
5.06892
218.227
1.87347
1.34162
0.599563
0.738171
7.44948
2.6568
1.18307
8.75552
0.472786
40.7369
0.771175
1.32639
135.071
341.797
3.38073
215.754
1.81263
3.20354
9.54442
12.9148
2.95645
0.494897
2.1894
1.3327
4.8924
3.77717
0.505138
232.543
24.3809
1.33747
284.093
6.67165
278.062
4.95723
107.629
3.45329
1.0685
129.718
113.508
5.15811
0.903367
1.39047
0.436956
0.822618
6.65426
0.728549
9.1375
5.08506
99.3917
2.04013
2.80477
2.67713
1.03631
387.606
0.583193
2.97924
0.630712
2.92143
159.472
1.11759
0.601538
0.557213
1.30673
1.03193
0.775832
3.20326
2.282
0.69318
1.30591
1.67598
0.496903
1.55178
0.88706
0.806804
126.019
100.289
118.628
1.2731
0.837848
5.8104
114.306
0.853493
1.31648
1.65948
0.800373
1.6628
0.941182
5.17108
110.052
1
1
1
1
1
1
SCALARS cell_area_modifier float
LOOKUP_TABLE default
100
2.93811
7.7094
0.422087
0.465669
0.519286
0.753551
0.348666
0.48573
100
0.61908
100
0.328358
0.932782
1.89099
0.68489
0.308165
100
0.49917
0.310286
0.317941
0.554395
0.571972
0.358363
0.397883
0.345992
0.290312
0.301975
0.319066
0.695451
100
4.35749
0.472994
0.61486
0.287536
100
0.51047
100
100
100
100
100
100
100
100
100
100
100
100
100
100
100
100
100
100
100
100
100
100
100
100
1.81489
100
100
0.594595
100
0.307116
0.456247
100
0.41056
0.286622
0.453951
0.4087
100
100
100
0.531526
0.463277
100
100
100
100
0.632095
0.664702
0.367114
100
4.82353
100
0.362686
100
100
100
100
2.16307
100
100
100
0.829807
100
2.84543
100
100
0.304011
100
6.58394
100
0.717582
0.329558
33.4074
100
100
100
100
10.3678
100
1.00557
0.416244
0.300968
100
0.293143
2.45777
0.478007
100
0.48836
0.298972
100
0.288455
0.311357
100
100
0.645669
100
100
0.361233
1.05251
0.438503
0.37319
100
0.376304
1.64899
100
100
1.09069
100
100
0.483128
0.305039
100
0.359793
1.17601
2.75841
100
0.355538
0.389297
0.331984
0.325985
0.568368
1.46191
0.428097
100
100
0.297004
100
0.89573
0.368615
0.315716
0.37474
0.711918
3.25632
0.381073
100
0.779602
0.292193
100
100
100
0.387624
0.36415
0.320199
100
3.50973
1.31295
0.29125
0.324811
0.32134
0.973031
0.334446
0.314615
100
0.861509
100
0.297985
0.30299
100
0.412437
100
100
11.7143
100
0.525335
100
0.655047
0.296029
0.442808
2.21622
0.323645
100
0.507597
0.33569
0.38432
1.35232
0.322488
0.340763
0.447199
100
1.27581
0.516314
100
0.356945
0.365626
0.289381
0.451678
0.309222
100
0.396135
100
0.313521
0.759899
2.11241
0.370127
100
0.432199
0.295061
100
0.534677
0.299967
0.294098
100
0.327167
0.336944
100
0.37947
100
1.93148
100
0.602538
0.339481
4.15668
1.71157
1.01691
3.65182
100
1.41601
0.392686
2.59942
0.33321
1.97374
0.513375
0.316825
0.60659
0.700855
1.77909
100
0.418173
0.426075
0.338208
100
100
0.46091
0.405029
0.814815
0.470527
0.350019
0.347324
0.352757
1.53663
0.541092
0.551008
0.414332
0.528412
100
0.942529
0.430138
100
0.354142
100
2.0179
100
0.650324
0.586858
0.557823
1.56326
0.444993
100
0.343357
0.480554
0.403219
0.342055
1.06494
0.351383
0.735126
0.371652
1.39413
0.547662
0.59854
0.886922
100
0.330766
0.436381
1.61939
0.623359
19.1915
2.06407
0.679729
0.344669
100
0.312435
0.401424
0.475488
0.537865
0.994487
100
9.29897
0.822242
0.786399
0.610697
0.385965
100
0.37788
100
15.8246
100
100
1.2075
8.42991
0.43428
0.583064
100
0.440645
1.85216
2.52661
100
100
3.37828
100
0.723336
0.406856
1.22388
100
0.491018
0.306074
3.03704
0.837512
0.952482
6.13605
0.766355
1.4386
0.390984
1.07766
0.669636
3.97357
100
0.458566
0.904714
0.579319
0.729184
1.6797
2.27204
0.501948
1.10404
0.399646
1.37291
0.424071
0.590701
100
100
0.420121
100
0.706343
0.636556
1.74468
5.4012
2.33075
0.493706
1.14612
1.19155
3.80591
0.564809
0.504757
100
24.3784
0.853359
100
0.878286
100
0.522293
13.4627
2.39257
1.04037
128.857
100
3.14286
0.627697
0.544357
0.394403
0.747307
0.962647
0.449427
7.10236
4.57868
53.0588
1.25802
0.659839
2.67656
0.983642
100
0.561294
1.29412
0.38269
1.11772
100
0.69013
0.575622
0.468085
0.674645
0.869817
0.772922
1.13174
1.486
0.64108
1.24072
1.16088
0.496423
1.51089
0.80752
0.793316
100
100
100
1.02851
0.741167
5.74522
100
0.845361
0.91388
1.59083
0.800355
1.33235
0.923234
5.09605
100
1
1
1
1
1
1
SCALARS cell_Gaussian_modifier float
LOOKUP_TABLE default
1.54254e+16
2.5238e+15
1.18129e+15
2.73581e+15
7.04323e+14
1.19622e+14
1.18859e+12
2.51975e+13
1.005e+15
2.55793e+14
1.63003e+13
6.75121e+12
6.0356e+10
5.1234e+11
4.55442e+13
3.3351e+14
1.24581e+13
1.7832e+11
2.99105e+10
6.70888e+08
5.89893e+10
4.68549e+11
5.44625e+12
7.79889e+11
3.7403e+10
2.93116e+09
4.65119e+08
1.10331e+09
2.30993e+10
7.03836e+10
6.67809e+11
9.6296e+09
1.3142e+09
1.18421e+08
1.36204e+07
1.13703e+10
3.74011e+10
9.32826e+16
2.96733e+16
4.99604e+15
6.94338e+13
1.42563e+13
5.36176e+12
2.06991e+11
4.53121e+10
6.02567e+08
5.48736e+07
6.06241e+09
3.06637e+10
3.07766e+12
8.1562e+12
2.36551e+13
6.23734e+15
3.85988e+16
100
100
1.92178e+15
1.43169e+12
375462
8.5549e+11
1.44069e+15
2.27381e+08
1.66427e+08
1.80075e+13
1.8061e+12
6.49092e+11
5.05248e+08
4.54999e+09
3.69859e+10
3.4865e+09
9.06856e+07
1.40961e+08
7.24961e+09
1.76833e+14
6.01803e+13
2.07719e+12
6.09765e+08
5.59546e+11
2.68587e+11
1.38444e+17
415582
1.92121e+16
5.76822e+09
3.81338e+08
8129.07
3.35537e+16
7.7403e+13
9.3435e+15
4.80453e+09
1.03137e+11
1.98016e+16
100
5.50389e+14
1.34358e+12
2.34078e+14
1.10763e+11
7.827e+09
1.09411e+13
8.48503e+13
2.93143e+11
4.60234e+11
2.96135e+10
8.35664e+07
1.05706e+08
2.9906e+06
4.74872e+09
3.89582e+09
6.50816e+06
4.76666e+07
1.63932e+09
5.08109e+06
1.30296e+09
226421
8.78298e+07
2.39582e+09
1.24449e+07
8.35933e+08
6.40628e+07
2.96276e+07
1.27624e+06
140969
1.26696e+08
4.6478e+08
1.26282e+06
1.143e+07
167029
427925
123776
1.74801e+07
1.15428e+07
3.34242e+07
3.5799e+06
104.356
1.96707e+07
819848
8.43575e+06
1.6303e+06
6271.27
2.82271e+06
997.651
1.04698e+07
1.27343e+07
1.58261e+08
393432
1.00802
2.45886e+07
1.41765e+06
979444
696.111
1.01567e+07
4.2368e+07
73676.3
304299
641058
2.59689e+06
245221
3.07587e+06
2.67042e+06
8872.16
2598.41
452.458
365345
31171.7
124655
69443.8
1.10151