# vtk DataFile Version 3.0
2D-vertex
ASCII
DATASET UNSTRUCTURED_GRID

POINTS 382 float
0.214052 -2.07875 0
2.73758 -1.918 0
3.14153 -1.00156 0
2.16103 0.0741508 0
-0.177763 0.284743 0
-0.936531 -1.14609 0
3.71507 -0.978596 0
4.3081 -0.134271 0
3.44417 1.34559 0
2.3301 1.04508 0
1.17632 2.26608 0
-0.556905 2.8283 0
-1.36389 1.59497 0
-1.5841 1.54791 0
-2.12002 -0.00980744 0
-1.64052 -0.892234 0
4.89137 -0.303572 0
5.77306 0.578432 0
4.00405 2.06181 0
3.66465 1.98758 0
2.85428 2.92868 0
1.70488 2.87399 0
1.18838 6.2617 0
0.124746 6.23725 0
-0.640446 4.47176 0
-1.98154 3.71509 0
-1.95908 1.93268 0
-3.3119 1.66883 0
-3.81235 0.732238 0
-3.52771 0.0223634 0
6.86385 0.570774 0
7.53852 1.33635 0
7.35974 2.63667 0
5.20432 3.72058 0
5.72098 4.3157 0
3.36804 5.54061 0
2.69527 6.69378 0
1.66737 6.87239 0
0.64309 9.67618 0
-1.09082 9.64762 0
-0.725603 7.04237 0
-2.46421 6.21616 0
-3.44604 4.86837 0
-4.52559 4.94228 0
-5.22661 3.71163 0
-6.6774 3.45343 0
-6.96772 2.47358 0
-5.41438 1.03253 0
7.85829 3.33826 0
7.55333 4.30075 0
6.87243 4.66483 0
6.21046 6.66734 0
3.83684 7.73768 0
3.76039 8.45822 0
2.27291 9.83627 0
2.85961 10.6317 0
-2.16057 10.8638 0
-2.12961 10.2611 0
-3.31146 9.15039 0
-3.02087 7.209 0
-4.81215 7.67727 0
-6.15413 6.53421 0
-8.1216 5.28496 0
-7.99338 4.68987 0
8.53117 4.7533 0
8.53524 4.76721 0
7.19328 6.70176 0
7.58665 7.99801 0
6.42208 9.08184 0
6.63614 9.85419 0
5.98076 10.6818 0
5.92841 11.0552 0
-2.91592 13.1278 0
-3.09418 12.9744 0
-6.65124 11.0715 0
-5.97697 10.0262 0
-6.69981 8.94866 0
-6.56662 8.62315 0
-9.0903 5.93607 0
-8.92801 5.48352 0
10.042 5.09418 0
10.3776 6.1331 0
9.65988 7.15167 0
10.7633 7.56514 0
10.5157 9.15504 0
10.7485 9.99704 0
9.6808 15.039 0
9.70561 17.8703 0
-9.01452 17.7258 0
-9.05451 17.2871 0
-10.5365 10.9412 0
-10.1995 10.2301 0
-10.5562 9.65546 0
-9.79814 8.41886 0
-10.5398 7.18378 0
-10.0962 6.09591 0
3.60382 -3.76005 0
4.84146 -3.222 0
5.71841 -2.81176 0
8.14093 -1.20913 0
9.46605 0.244445 0
10.8336 2.58812 0
10.9577 2.80828 0
11.7029 3.94894 0
12.4913 5.92038 0
12.7084 6.76307 0
12.845 10.4122 0
11.6101 18.9465 0
-11.3966 19.0367 0
-12.7596 11.0987 0
-12.7712 9.63937 0
-12.4949 6.92845 0
-11.6948 4.91427 0
-10.8599 3.74063 0
-10.2293 2.92623 0
-9.25294 1.45896 0
-7.2974 -0.737014 0
-5.19032 -2.18245 0
-3.06559 -3.20966 0
-0.0492543 -4.07059 0
12.5277 12.5175 0
9.2231 11.9767 0
-12.5769 14.4682 0
-10.2265 14.4877 0
-0.431863 4.19648 0
1.00869 4.29892 0
-1.98997 6.13781 0
-1.35546 4.47212 0
4.73992 5.74675 0
5.13077 6.69675 0
0.311201 11.0279 0
0.140751 10.1358 0
-1.30903 8.23988 0
-2.66842 7.96474 0
6.20988 6.66977 0
5.43345 8.53488 0
4.46736 8.97749 0
4.39942 10.148 0
2.48923 11.3668 0
2.48743 11.3651 0
-2.92633 11.301 0
-4.47515 10.0544 0
-4.04828 9.24098 0
-4.91061 8.26631 0
1.26902 1.70275 0
-0.228561 0.695274 0
6.54478 2.85182 0
5.43645 1.23739 0
5.20219 3.72188 0
3.16601 4.45609 0
-9.35469 12.3914 0
-6.41105 11.6222 0
3.16358 4.45549 0
1.64676 5.11375 0
-9.7259 8.27027 0
-8.30114 7.53924 0
-0.98863 -1.17081 0
-1.44136 -3.80385 0
2.32176 24.912 0
2.70575 26.4896 0
1.06021 -1.73876 0
1.1902 -0.334282 0
2.65541 8.82872 0
1.44582 7.69256 0
9.06259 11.3514 0
6.0551 10.8314 0
5.98923 22.0008 0
0.49964 12.6085 0
-2.9316 -0.260678 0
-3.66262 -2.95024 0
-4.66742 2.73937 0
-5.53015 1.65283 0
-5.86688 -1.7761 0
-4.78793 0.599784 0
0.417511 8.19314 0
-0.647904 7.69616 0
9.60953 6.90265 0
7.98919 6.08459 0
5.57835 0.0511909 0
7.22622 -1.92122 0
1.53404 -4.16652 0
1.59793 -2.17804 0
-6.50649 1.79467 0
-8.07538 -0.00765971 0
-5.81719 5.41407 0
-7.10095 4.31066 0
7.66815 2.79575 0
10.0588 1.14463 0
-12.6908 8.33615 0
-9.79985 8.41702 0
12.9807 8.84961 0
10.9781 8.67103 0
-3.05596 3.94772 0
-3.93729 2.70442 0
-9.75696 2.25731 0
-7.10105 3.78662 0
-3.92764 7.0545 0
-4.70223 5.27831 0
-7.25993 7.6303 0
-6.83237 6.67727 0
8.59038 8.22389 0
8.83652 8.86657 0
-0.887905 12.4038 0
-0.79678 11.7454 0
12.5308 12.687 0
10.1737 13.4975 0
9.5192 16.2462 0
2.3511 11.6133 0
8.23433 9.92582 0
9.56867 10.9386 0
-7.8802 9.18052 0
-8.20106 10.1243 0
-2.35632 14.6251 0
1.07351 13.8676 0
-9.91674 15.167 0
-4.46916 13.0894 0
9.56806 10.941 0
12.6377 11.6958 0
-10.1105 16.8849 0
-11.9386 17.8764 0
-12.669 12.3989 0
-9.63382 12.0298 0
9.82451 21.601 0
8.36316 19.6713 0
8.8387 12.3794 0
6.79556 12.2426 0
-9.62971 12.0184 0
-7.82184 10.9271 0
2.6185 14.6614 0
4.54056 13.4295 0
-4.96856 11.8278 0
-4.13349 10.8535 0
5.25365 13.3383 0
4.53346 11.6585 0
12.5596 14.6579 0
10.3251 14.3347 0
-2.9686 14.3475 0
-4.9284 14.2101 0
-2.02661 24.2408 0
0.171495 15.1481 0
-7.05191 12.4523 0
-4.9398 13.5556 0
-12.6149 13.3018 0
-9.80623 13.248 0
5.76008 17.7339 0
7.873 16.4058 0
-0.925394 13.8901 0
-0.600542 12.6835 0
-7.7565 21.4822 0
-9.45758 22.6145 0
1.36439 24.5761 0
2.38951 15.6884 0
-2.95046 16.8515 0
-7.12424 21.85 0
-10.4109 15.8046 0
-12.4772 15.8718 0
-6.58354 16.2523 0
-6.37186 14.846 0
-6.85485 12.9843 0
-7.56465 14.29 0
12.2214 17.0737 0
9.97655 16.903 0
-5.84118 23.4369 0
-6.36437 25.224 0
6.4163 13.2108 0
5.25545 13.3366 0
8.93916 18.2385 0
7.63551 17.3703 0
4.19393 14.4286 0
6.28548 17.459 0
-2.08383 15.6721 0
-0.343905 15.9428 0
7.39759 24.1708 0
5.94167 22.8423 0
0.451214 15.1211 0
1.48296 16.1081 0
4.118 23.2802 0
3.96416 16.7859 0
12.4089 15.8729 0
9.91295 15.5945 0
-8.16968 16.3885 0
-8.58283 15.3623 0
-9.62509 13.5833 0
-7.67589 13.8701 0
-7.76086 20.8104 0
-5.78829 17.8359 0
0.707832 25.0555 0
0.853886 26.798 0
2.03867 13.8592 0
2.91781 12.5788 0
-3.86939 16.3467 0
-4.10636 15.3234 0
-10.3019 21.2646 0
-8.54175 20.3282 0
0.24353 17.4582 0
-0.191133 17.1112 0
7.86775 14.6447 0
7.2491 15.3824 0
9.03338 13.0972 0
7.76489 14.1582 0
-7.09897 22.7852 0
-8.31822 23.9572 0
-2.58257 16.7265 0
-1.50037 17.6957 0
1.62475 17.3637 0
3.11748 17.6642 0
6.39893 15.2906 0
6.00099 15.7856 0
-6.08416 19.6824 0
-5.35577 20.1018 0
-8.49342 18.0332 0
-6.28561 17.2281 0
3.90975 16.4974 0
4.81496 15.5678 0
-4.47367 22.5135 0
-3.29831 18.6369 0
5.65139 25.3802 0
4.92363 23.5415 0
-2.74698 26.5065 0
-2.28117 24.3162 0
7.40368 19.5978 0
6.88601 17.785 0
8.4092 23.1308 0
6.71605 21.6778 0
3.49039 19.5141 0
4.86158 20.4898 0
0.9912 19.688 0
2.93755 19.7394 0
0.31474 22.406 0
-1.31068 22.7013 0
-1.83411 21.5496 0
-2.97902 20.9654 0
-6.13923 16.6453 0
-4.18048 15.3064 0
-4.78083 22.4682 0
-5.57712 21.2459 0
3.9235 21.8529 0
4.85642 21.2874 0
-10.9513 19.9735 0
-8.58473 18.9137 0
-8.38075 19.0775 0
-6.3504 18.8091 0
-1.10227 19.5868 0
-0.0265677 19.0427 0
3.26492 23.8196 0
1.00093 20.6725 0
4.33676 25.9592 0
3.56332 23.8648 0
-3.9696 26.1952 0
-3.51835 23.7246 0
-5.06183 17.7953 0
-4.27904 18.8714 0
6.94842 20.3055 0
6.02951 19.7144 0
1.58256 17.4092 0
1.91812 19.1185 0
8.98959 19.015 0
10.9953 20.0872 0
9.18551 22.2727 0
7.12601 20.254 0
-3.17375 23.5596 0
-2.56976 21.546 0
-1.71035 19.1637 0
-2.47127 19.4334 0
2.32952 21.483 0
2.83726 21.2265 0
-4.56988 19.8338 0
-3.56272 21.0293 0
3.71812 18.7272 0
5.5581 18.52 0
-1.03336 20.692 0
0.189267 21.2025 0
1.25443 22.8747 0
2.22301 22.4281 0
-0.904661 25.1713 0
-1.02812 26.7881 0
-0.0462683 24.6882 0
-0.289855 22.9033 0
-5.68987 25.5282 0
-4.21237 23.4064 0
-1.53362 19.2867 0
-2.37865 21.547 0

CELLS 573 1719
2 160 0
2 1 2
2 2 3
2 161 4
2 4 5
2 5 0
2 2 6
2 6 7
2 7 8
2 8 9
2 3 9
2 9 144
2 10 11
2 11 12
2 145 4
2 12 13
2 13 14
2 15 14
2 5 156
2 7 16
2 17 178
2 147 17
2 19 18
2 19 8
2 20 19
2 21 20
2 10 21
2 153 125
2 23 22
2 24 23
2 24 124
2 127 24
2 26 25
2 26 13
2 27 26
2 28 27
2 29 28
2 14 168
2 30 17
2 30 31
2 32 31
2 32 146
2 18 33
2 33 148
2 128 35
2 20 152
2 35 36
2 37 36
2 22 37
2 37 163
2 38 131
2 175 40
2 40 23
2 126 40
2 42 41
2 25 192
2 43 42
2 43 44
2 193 27
2 45 44
2 46 45
2 47 171
2 173 47
2 48 186
2 48 49
2 49 50
2 34 50
2 50 51
2 52 129
2 36 52
2 52 53
2 53 162
2 54 38
2 55 54
2 139 55
2 57 56
2 39 57
2 58 57
2 59 133
2 41 59
2 59 196
2 61 60
2 197 43
2 199 61
2 62 63
2 195 185
2 49 64
2 64 65
2 177 65
2 51 134
2 67 66
2 68 67
2 53 136
2 69 68
2 70 69
2 55 137
2 165 70
2 233 71
2 73 72
2 140 56
2 215 73
2 74 75
2 58 142
2 76 75
2 77 76
2 60 143
2 77 198
2 78 79
2 79 62
2 65 80
2 80 81
2 81 176
2 67 200
2 82 83
2 83 191
2 69 208
2 84 85
2 164 216
2 71 225
2 86 279
2 158 250
2 88 89
2 290 252
2 254 214
2 90 91
2 91 211
2 91 92
2 92 93
2 93 210
2 189 93
2 94 95
2 95 78
2 96 1
2 96 97
2 97 6
2 97 98
2 16 98
2 179 99
2 99 30
2 31 100
2 187 101
2 101 48
2 101 102
2 102 64
2 102 103
2 103 80
2 81 104
2 104 105
2 83 105
2 105 190
2 85 106
2 217 120
2 87 107
2 108 88
2 255 122
2 109 90
2 109 110
2 92 110
2 110 188
2 111 94
2 95 112
2 112 113
2 113 79
2 113 114
2 63 114
2 114 194
2 115 46
2 116 47
2 116 172
2 117 29
2 169 118
2 118 15
2 157 119
2 0 119
2 119 180
2 99 100
2 103 104
2 249 292
2 111 112
2 183 116
2 120 204
2 121 224
2 120 121
2 122 242
2 123 282
2 122 123
2 124 11
2 125 21
2 124 125
2 41 126
2 127 25
2 126 127
2 34 128
2 129 51
2 128 129
2 203 130
2 131 39
2 130 131
2 39 132
2 133 58
2 132 133
2 134 66
2 135 68
2 134 135
2 136 135
2 137 70
2 136 137
2 207 138
2 130 139
2 139 138
2 140 73
2 75 141
2 231 140
2 142 141
2 143 77
2 142 143
2 144 10
2 145 12
2 144 145
2 146 33
2 147 18
2 146 147
2 148 34
2 149 35
2 148 149
2 221 150
2 151 74
2 150 240
2 152 149
2 153 22
2 152 153
2 94 154
2 155 78
2 154 155
2 156 15
2 157 118
2 156 157
2 266 87
2 357 222
2 159 158
2 181 160
2 161 3
2 160 161
2 162 54
2 163 174
2 162 163
2 164 121
2 71 165
2 165 164
2 166 273
2 247 167
2 166 337
2 168 29
2 169 117
2 168 169
2 44 170
2 171 182
2 170 171
2 172 117
2 173 28
2 172 173
2 174 38
2 175 132
2 174 175
2 176 82
2 177 66
2 176 177
2 178 16
2 179 98
2 178 179
2 180 96
2 181 1
2 180 181
2 182 46
2 183 115
2 182 183
2 61 184
2 185 63
2 184 185
2 186 32
2 187 100
2 186 187
2 188 111
2 189 154
2 188 189
2 190 106
2 191 84
2 190 191
2 192 42
2 193 170
2 192 193
2 194 115
2 195 45
2 194 195
2 196 60
2 197 184
2 196 197
2 198 155
2 199 62
2 198 199
2 200 82
2 201 84
2 200 201
2 72 202
2 203 56
2 202 203
2 204 234
2 205 235
2 205 204
2 261 206
2 167 207
2 206 245
2 208 201
2 209 85
2 208 209
2 210 76
2 227 74
2 210 211
2 236 72
2 213 167
2 239 274
2 214 123
2 230 215
2 241 237
2 216 209
2 217 106
2 216 217
2 89 218
2 219 108
2 218 219
2 220 109
2 221 226
2 220 221
2 222 358
2 320 223
2 223 222
2 224 298
2 264 225
2 225 224
2 226 90
2 227 211
2 226 227
2 228 288
2 289 229
2 228 268
2 151 230
2 231 141
2 230 231
2 229 232
2 233 138
2 265 233
2 234 278
2 235 86
2 235 234
2 236 212
2 257 237
2 291 236
2 248 284
2 246 239
2 271 295
2 240 151
2 241 215
2 240 258
2 242 220
2 243 150
2 242 243
2 277 244
2 232 306
2 245 267
2 212 246
2 247 202
2 246 247
2 253 248
2 301 249
2 249 248
2 374 238
2 251 228
2 294 354
2 252 302
2 300 253
2 335 309
2 218 254
2 255 219
2 254 255
2 280 256
2 259 281
2 256 257
2 258 241
2 259 257
2 283 259
2 260 107
2 261 87
2 260 261
2 319 238
2 375 318
2 263 262
2 299 264
2 232 265
2 265 264
2 223 356
2 244 269
2 267 266
2 268 229
2 321 267
2 313 307
2 212 270
2 271 239
2 270 271
2 272 316
2 273 317
2 272 273
2 274 213
2 275 251
2 274 275
2 276 347
2 277 312
2 336 276
2 278 260
2 279 206
2 278 279
2 89 280
2 281 214
2 280 281
2 282 243
2 283 258
2 282 283
2 284 293
2 311 285
2 308 284
2 250 286
2 287 159
2 286 287
2 288 213
2 289 207
2 288 289
2 285 350
2 333 291
2 291 290
2 292 338
2 293 340
2 293 292
2 326 345
2 370 330
2 295 294
2 86 296
2 297 245
2 296 297
2 298 205
2 299 296
2 298 299
2 262 300
2 301 263
2 300 301
2 302 270
2 303 295
2 302 303
2 304 275
2 305 277
2 304 305
2 306 297
2 307 269
2 306 307
2 308 341
2 315 252
2 309 308
2 88 310
2 311 332
2 310 311
2 312 251
2 313 268
2 312 313
2 334 314
2 309 366
2 315 363
2 316 346
2 276 317
2 317 316
2 318 348
2 319 360
2 318 319
2 359 320
2 269 321
2 321 320
2 322 272
2 323 166
2 322 323
2 324 368
2 369 353
2 325 324
2 343 326
2 324 327
2 326 355
2 372 250
2 238 329
2 377 328
2 329 330
2 367 314
2 381 361
2 332 256
2 333 237
2 332 333
2 262 334
2 335 253
2 334 335
2 365 336
2 337 325
2 336 337
2 338 108
2 339 310
2 338 339
2 340 339
2 341 285
2 340 341
2 303 362
2 343 294
2 342 343
2 344 158
2 328 371
2 373 344
2 346 159
2 347 344
2 346 347
2 348 378
2 379 349
2 349 348
2 350 290
2 351 315
2 350 351
2 323 352
2 353 325
2 352 353
2 354 304
2 355 327
2 354 355
2 356 266
2 357 107
2 356 357
2 358 322
2 359 352
2 358 359
2 360 349
2 361 331
2 360 361
2 362 380
2 331 363
2 363 362
2 345 364
2 365 327
2 364 365
2 366 351
2 367 331
2 366 367
2 368 305
2 369 244
2 368 369
2 342 370
2 371 345
2 370 371
2 328 372
2 373 364
2 372 373
2 286 376
2 375 287
2 374 375
2 376 374
2 377 329
2 376 377
2 378 263
2 379 314
2 378 379
2 380 342
2 381 330
2 380 381

CELL_TYPES 573
3
3
3
3
3
3
3
3
3
3
3
3
3
3
3
3
3
3
3
3
3
3
3
3
3
3
3
3
3
3
3
3
3
3
3
3
3
3
3
3
3
3
3
3
3
3
3
3
3
3
3
3
3
3
3
3
3
3
3
3
3
3
3
3
3
3
3
3
3
3
3
3
3
3
3
3
3
3
3
3
3
3
3
3
3
3
3
3
3
3
3
3
3
3
3
3
3
3
3
3
3
3
3
3
3
3
3
3
3
3
3
3
3
3
3
3
3
3
3
3
3
3
3
3
3
3
3
3
3
3
3
3
3
3
3
3
3
3
3
3
3
3
3
3
3
3
3
3
3
3
3
3
3
3
3
3
3
3
3
3
3
3
3
3
3
3
3
3
3
3
3
3
3
3
3
3
3
3
3
3
3
3
3
3
3
3
3
3
3
3
3
3
3
3
3
3
3
3
3
3
3
3
3
3
3
3
3
3
3
3
3
3
3
3
3
3
3
3
3
3
3
3
3
3
3
3
3
3
3
3
3
3
3
3
3
3
3
3
3
3
3
3
3
3
3
3
3
3
3
3
3
3
3
3
3
3
3
3
3
3
3
3
3
3
3
3
3
3
3
3
3
3
3
3
3
3
3
3
3
3
3
3
3
3
3
3
3
3
3
3
3
3
3
3
3
3
3
3
3
3
3
3
3
3
3
3
3
3
3
3
3
3
3
3
3
3
3
3
3
3
3
3
3
3
3
3
3
3
3
3
3
3
3
3
3
3
3
3
3
3
3
3
3
3
3
3
3
3
3
3
3
3
3
3
3
3
3
3
3
3
3
3
3
3
3
3
3
3
3
3
3
3
3
3
3
3
3
3
3
3
3
3
3
3
3
3
3
3
3
3
3
3
3
3
3
3
3
3
3
3
3
3
3
3
3
3
3
3
3
3
3
3
3
3
3
3
3
3
3
3
3
3
3
3
3
3
3
3
3
3
3
3
3
3
3
3
3
3
3
3
3
3
3
3
3
3
3
3
3
3
3
3
3
3
3
3
3
3
3
3
3
3
3
3
3
3
3
3
3
3
3
3
3
3
3
3
3
3
3
3
3
3
3
3
3
3
3
3
3
3
3
3
3
3
3
3
3
3
3
3
3
3
3
3
3
3
3
3
3
3
3
3
3
3
3
3
3
3
3
3
3
3
3
3
3
3
3
3
3
3
3
3
3
3
3
3
3
3
3
3
3
3
3
3
3
3
3
3
3
3
3
3
3
3
3
3
3
3
3
3
3
3
3
3
3
3
3
3
3
3
3
3
3

CELL_DATA 573
SCALARS current_Length float
LOOKUP_TABLE default
0.911907
1.00152
1.45552
1.50151
1.61957
1.48112
0.573999
1.03178
1.71359
1.15388
0.985537
1.24837
1.82213
1.47388
0.413662
0.225181
1.64733
1.00429
0.0576675
0.607339
0.562047
0.739956
0.347419
0.678798
1.24192
1.1507
0.805562
1.03493
1.06391
1.92418
0.345379
0.715014
1.78255
0.537267
1.3783
1.06191
0.764814
0.849467
1.09082
1.02043
1.31256
0.842878
2.04747
0.00249761
1.38729
1.55783
1.33508
1.04331
0.77613
0.849565
0.680875
0.658391
1.17103
1.55462
1.66749
1.09931
1.08207
1.4163
1.20978
1.47359
1.02196
0.631006
0.761391
0.574871
1.00965
0.772129
1.20322
2.10908
1.66066
1.5469
0.724583
1.16543
1.63767
0.988403
0.822384
0.603473
1.20643
1.62187
0.833881
1.13824
0.919839
1.76282
0.379633
0.693159
0.608744
0.524048
1.07748
0.0144964
1.42606
0.00249454
1.35463
1.59088
0.877186
0.801468
1.05572
1.61399
0.166974
1.51984
0.235213
0.881806
1.37977
1.24389
0.742369
1.29751
0.35171
0.597209
1.21097
0.480774
0.830492
1.54178
1.09179
1.08727
1.02884
1.17835
1.12656
1.5998
0.873577
0.651095
1.47039
0.602026
1.01456
0.440575
1.04843
0.806726
0.786981
2.00125
0.676316
1.45046
2.06365
0.00251168
1.17486
1.0185
2.03557
1.34954
2.5103
0.968156
2.64102
1.15921
2.19066
2.21531
1.63826
3.06841
0.252718
3.10983
1.36252
2.01748
2.12433
0.87021
2.10396
2.10424
2.13728
0.829044
2.18756
2.71894
1.40716
2.22868
1.45934
2.21509
1.3057
1.97172
1.98796
1.44031
2.60193
1.03005
2.84774
0.818858
2.50034
2.584
1.76808
2.76143
0.650961
2.72053
1.41743
2.00917
1.5862
1.96693
2.12323
1.5922
2.16728
1.0664
0.169596
0.556769
3.34856
1.16702
1.08613
2.35048
1.37388
1.58591
1.44419
0.480676
0.98238
1.78245
1.73505
1.0801
1.02725
1.32001
1.32479
0.908226
1.42455
1.3488
1.38696
0.983914
1.12984
2.02027
1.06265
1.669
1.17252
0.282521
2.2022
0.0025087
1.68174
1.50208
1.28744
0.918656
1.69402
1.30138
0.570904
1.44859
1.80493
1.59737
1.65271
1.95826
0.788523
1.10317
2.1645
0.456743
0.600847
2.30359
0.00250344
1.23609
1.6535
1.35755
1.78687
1.60135
0.708918
1.7295
2.67168
0.85033
1.9137
1.62374
0.694344
1.05324
1.41048
1.07771
1.14368
1.65951
0.645522
0.257175
3.05213
0.842871
1.10274
1.33876
0.659899
1.70979
2.78714
1.1216
0.986586
1.3874
0.789206
0.984529
2.6094
1.50009
0.855993
1.17563
0.25406
1.00716
1.81514
0.773172
1.75116
2.57019
2.10932
1.16893
1.98951
0.82077
1.88085
2.38953
1.16971
0.969652
1.6928
0.347017
1.07784
2.90544
1.42125
0.16433
2.89209
1.56849
0.669328
2.01061
0.999879
0.730963
1.52399
0.94414
0.538968
3.06475
1.08176
1.12319
1.93775
1.04519
1.89754
1.04454
1.51443
1.70382
0.688198
2.1534
1.62392
0.664655
1.97105
0.850806
2.49255
0.800347
2.10198
1.65392
1.21846
1.50943
1.67515
1.20294
1.17946
0.996854
1.22082
1.3837
0.281026
0.746513
1.35681
0.654542
0.00250956
1.30017
3.16111
1.13003
1.28066
2.07963
1.30336
0.0121076
3.05751
0.927123
0.96229
2.42062
0.743732
1.03981
2.04772
1.40804
0.88786
2.11173
0.989768
1.8322
1.59254
1.45707
0.869055
1.28318
0.718892
2.06494
1.8268
1.22433
0.954516
2.25776
0.672258
1.57733
1.49893
0.671761
1.66906
1.17832
1.04873
0.66252
0.567301
0.904521
0.968327
2.80918
2.03075
2.26339
0.99325
1.60865
0.401067
1.24954
0.731492
1.76094
2.04348
1.45762
1.05228
1.33993
0.388544
0.935475
1.16534
1.12121
2.07567
2.0674
1.59199
1.47866
1.4221
1.99845
1.31599
0.434467
1.97006
1.00446
2.25131
0.265493
1.74178
1.86214
1.64809
0.0025121
1.16764
0.907244
0.59297
1.56633
1.05754
0.856587
1.20586
1.08187
0.947211
1.76087
2.12413
1.23502
1.97089
1.39948
0.998988
1.42786
0.805864
0.293629
1.44048
1.21539
0.761461
2.51139
1.26107
1.34814
1.10626
0.381131
1.20775
1.97018
0.917778
0.785404
2.02084
0.812922
1.87736
1.74862
0.965196
1.11954
1.55319
0.727597
0.0760455
1.05044
1.44517
1.26099
1.99374
0.984519
1.17336
0.556139
1.85544
1.19857
0.962831
1.20857
0.497218
1.6537
1.41662
2.32863
1.69119
1.16639
1.43377
1.45277
1.26354
1.21998
1.52268
0.855121
1.69738
0.635121
0.912941
1.81897
0.840508
0.604978
0.600901
2.35003
1.72206
1.29753
1.29748
0.310489
0.830336
1.14825
1.4365
0.846953
1.97745
1.26162
1.17014
2.23922
0.712569
0.683319
1.88526
1.45082
0.795377
2.23116
0.819124
1.28407
1.6829
1.20507
0.59701
1.08786
1.70499
1.69781
0.782814
1.26506
1.74145
0.73566
0.59317
1.32711
2.37261
1.43624
1.66087
1.45875
1.2539
0.797606
1.09096
1.03731
0.885249
2.59305
0.261637
1.12386
2.04801
1.48295
1.60744
1.20546
1.44316
1.21008
1.73836
1.71509
0.301799
2.23265
1.84504
0.763485
2.51149
1.87621
1.00838
1.33069
1.3918
1.4019
1.09263
0.0620424
1.19362
1.74199
0.778121
1.29581
2.27434
1.15711
0.184899
2.88389
0.382082
0.710359
2.10218
0.740785
1.61391
0.807323
1.55631
1.49048
0.568836
1.0054
0.5872
1.56324
1.22095
0.81163
1.85162
1.10734
0.969381
1.32492
1.05008
0.951126
1.06656
0.838774
1.88203
1.62146
0.985014
1.04061
1.80149
0.739925
0.930325
2.58557
3.3009
3.37
0

SCALARS edge_force float
LOOKUP_TABLE default
0.5
0.5
0.5
0.5
0.5
0.5
0.5
0.5
0.5
0.5
0.5
0.5
0.5
0.5
0.5
0.5
0.5
0.5
0.5
0.5
0.5
0.5
0.5
0.5
0.5
0.5
0.5
0.5
0.5
0.5
0.5
0.5
0.5
0.5
0.5
0.5
0.5
0.5
0.5
0.5
0.5
0.5
0.5
0.5
0.5
0.5
0.5
0.5
0.5
0.5
0.5
0.5
0.5
0.5
0.5
0.5
0.5
0.5
0.5
0.5
0.5
0.5
0.5
0.5
0.5
0.5
0.5
0.5
0.5
0.5
0.5
0.5
0.5
0.5
0.5
0.5
0.5
0.5
0.5
0.5
0.5
0.5
0.5
0.5
0.5
0.5
0.5
0.5
0.5
0.5
0.5
0.5
0.5
0.5
0.5
0.5
0.5
0.5
0.5
0.5
0.5
0.5
0.5
0.5
0.5
0.5
0.5
0.5
0.5
0.5
0.5
0.5
0.5
0.5
0.5
0.5
0.5
0.5
0.5
0.5
0.5
0.5
0.5
0.5
0.5
0.5
0.5
0.5
0.5
0.5
0.5
0.5
0.5
2
0.5
2
0.5
2
0.5
0.5
2
0.5
2
0.5
2
0.5
0.5
2
0.5
2
0.5
2
0.5
0.5
2
0.5
2
0.5
2
0.5
0.5
2
0.5
2
0.5
2
0.5
0.5
2
0.5
2
0.5
2
0.5
2
2
2
2
2
2
2
0.5
0.5
2
0.5
0.5
0.5
0.5
0.5
0.5
0.5
0.5
0.5
0.5
0.5
0.5
0.5
0.5
0.5
0.5
0.5
0.5
0.5
0.5
0.5
0.5
0.5
0.5
0.5
0.5
0.5
0.5
0.5
0.5
0.5
0.5
0.5
0.5
0.5
0.5
0.5
0.5
0.5
0.5
0.5
0.5
0.5
0.5
0.5
0.5
0.5
0.5
0.5
0.5
0.5
2
0.5
0.5
2
0.5
0.5
0.5
0.5
0.5
0.5
0.5
0.5
0.5
0.5
0.5
0.5
0.5
0.5
2
0.5
0.5
0.5
0.5
2
0.5
0.5
0.5
0.5
0.5
0.5
0.5
0.5
0.5
2
0.5
2
0.5
0.5
0.5
2
0.5
0.5
0.5
0.5
0.5
2
0.5
2
0.5
0.5
2
0.5
0.5
0.5
0.5
0.5
2
0.5
0.5
0.5
0.5
0.5
0.5
0.5
0.5
0.5
0.5
0.5
0.5
0.5
0.5
2
0.5
0.5
0.5
0.5
0.5
0.5
0.5
0.5
0.5
0.5
0.5
0.5
0.5
0.5
0.5
0.5
0.5
0.5
2
0.5
0.5
2
0.5
2
0.5
0.5
2
0.5
0.5
0.5
0.5
0.5
0.5
0.5
0.5
0.5
0.5
0.5
0.5
0.5
0.5
0.5
0.5
0.5
2
0.5
0.5
0.5
0.5
0.5
0.5
0.5
0.5
0.5
0.5
0.5
2
0.5
0.5
0.5
0.5
0.5
0.5
0.5
0.5
0.5
2
0.5
0.5
0.5
0.5
0.5
0.5
0.5
0.5
2
0.5
0.5
0.5
0.5
0.5
0.5
0.5
2
0.5
0.5
0.5
2
0.5
0.5
0.5
0.5
0.5
0.5
0.5
0.5
0.5
0.5
0.5
0.5
0.5
2
0.5
0.5
0.5
0.5
0.5
0.5
0.5
0.5
2
0.5
0.5
0.5
0.5
0.5
0.5
0.5
0.5
0.5
0.5
0.5
0.5
2
0.5
0.5
0.5
0.5
0.5
0.5
0.5
2
0.5
0.5
0.5
0.5
0.5
0.5
0.5
0.5
0.5
0.5
0.5
0.5
2
0.5
0.5
0.5
0.5
0.5
0.5
0.5
0.5
0.5
0.5
0.5
0.5
0.5
0.5
0.5
0.5
0.5
0.5
0.5
0.5
0.5
0.5
2
0.5
0.5
2
0.5
0.5
0.5
0.5
0.5
2
0.5
0.5
0.5
0.5
0.5
0.5
0.5
0.5
0.5
0.5
0.5
0.5
0.5
0.5
0.5
0.5
0.5
0.5
0.5
0.5
0.5
0.5
0.5
2
0.5
0.5
0.5
0.5
0.5
0.5
0.5
0.5
0.5
0.5
0.5
2
0.5
0.5
2
0.5
0.5
0.5
0.5
0.5
0.5
0.5
0.5
0.5
0.5
0.5
0.5
2
0.5
2
0.5
0.5
0.5
0.5
0.5
0.5
0.5
0.5
0.5
0.5
0.5
0.5
0.5
0.5
0.5
0.5
0.5
0.5
0.5
0.5
0.5
0.5
0.5
0.5
2
0.5
0.5
0.5
0.5
2
0.5
0.5
0
0
0
