# vtk DataFile Version 2.0
2D-vertex
ASCII
DATASET UNSTRUCTURED_GRID
POINTS 748 float
0.243685 -3.43515 0
2.6926 -3.29035 0
3.10606 -2.35021 0
2.10649 -1.25499 0
-0.153969 -1.05258 0
-0.908241 -2.5264 0
3.63272 -2.32996 0
4.22821 -1.49127 0
3.33468 0.05038 0
2.28115 -0.236534 0
1.1391 1.05268 0
-0.537639 1.5701 0
-1.33201 0.312924 0
-1.48815 0.278091 0
-2.04423 -1.38178 0
-1.55427 -2.27972 0
4.79592 -1.66396 0
5.62833 -0.806696 0
3.83374 0.781751 0
3.56178 0.72209 0
2.70932 1.70516 0
1.64139 1.64546 0
1.08206 5.27617 0
0.212504 5.27156 0
-0.645686 3.42082 0
-1.8802 2.54078 0
-1.83729 0.634582 0
-3.13446 0.371257 0
-3.66977 -0.653513 0
-3.38314 -1.37142 0
6.69629 -0.823779 0
7.33503 -0.119593 0
7.19455 1.19844 0
5.00747 2.43242 0
5.4907 2.99914 0
3.17951 4.39343 0
2.4537 5.69081 0
1.55999 5.87189 0
0.690569 9.03227 0
-0.916777 9.1083 0
-0.645426 6.10312 0
-2.17883 5.19718 0
-3.25391 3.67832 0
-4.21338 3.72953 0
-4.97553 2.33242 0
-6.39076 2.04801 0
-6.69698 0.984791 0
-5.21001 -0.39234 0
7.63067 1.8091 0
7.31481 2.86282 0
6.57329 3.30557 0
5.8964 5.38363 0
3.57581 6.63712 0
3.52664 7.49193 0
2.1086 9.12237 0
2.66162 9.81752 0
-1.88438 10.4711 0
-1.80914 9.60419 0
-3.0564 8.3094 0
-2.76079 6.17373 0
-4.40131 6.51362 0
-5.7986 5.21955 0
-7.74102 3.75667 0
-7.60514 3.22327 0
8.24366 3.24744 0
8.24368 3.24994 0
6.81518 5.33618 0
7.28111 6.52283 0
6.05609 7.82825 0
6.28544 8.4989 0
5.54759 9.52436 0
5.31595 9.99812 0
-2.61659 12.7552 0
-2.85445 12.467 0
-6.10629 9.67298 0
-5.43631 8.86783 0
-6.1665 7.51924 0
-6.08284 7.34943 0
-8.72208 4.27238 0
-8.57663 3.92147 0
9.78748 3.5132 0
10.1296 4.45499 0
9.35173 5.46039 0
10.5358 5.85317 0
10.2769 7.38166 0
10.4876 8.08767 0
9.84597 12.7668 0
10.9111 14.8605 0
-9.75341 14.7764 0
-9.74549 14.749 0
-10.0946 8.86836 0
-9.80258 8.34495 0
-10.1463 7.71573 0
-9.41157 6.61583 0
-10.2339 5.36798 0
-9.78239 4.38799 0
3.58083 -5.1644 0
4.79107 -4.63465 0
5.62995 -4.24304 0
8.00104 -2.68563 0
9.31358 -1.27052 0
10.6802 1.04226 0
10.7726 1.20434 0
11.4889 2.25932 0
12.3104 4.17109 0
12.5345 4.94749 0
12.7902 8.45945 0
13.5006 15.2094 0
-13.2906 15.2382 0
-12.701 8.83298 0
-12.619 7.56012 0
-12.2563 5.02421 0
-11.393 3.0823 0
-10.5409 1.98171 0
-9.94445 1.26122 0
-9.05519 -0.0588485 0
-7.1471 -2.20664 0
-5.0909 -3.62195 0
-3.00556 -4.63423 0
-0.0159618 -5.4826 0
12.6856 9.98077 0
8.64504 10.2394 0
-12.9764 11.3047 0
-10.0993 12.1247 0
-0.400826 3.08046 0
0.899153 3.15941 0
-1.91148 5.15986 0
-1.18769 3.42099 0
4.44571 4.57061 0
4.8667 5.48512 0
0.402798 10.6075 0
0.16891 9.53946 0
-1.14838 7.44945 0
-2.35056 7.16997 0
5.89548 5.38595 0
5.10648 7.36845 0
4.13828 7.88938 0
4.16847 9.21927 0
2.18278 10.8072 0
2.18071 10.8058 0
-2.424 10.7301 0
-3.98905 9.03579 0
-3.54869 8.33245 0
-4.5193 7.09784 0
1.24873 0.406783 0
-0.213991 -0.56773 0
6.37388 1.45988 0
5.25699 -0.0587124 0
5.00548 2.43393 0
2.99614 3.27987 0
-8.96842 10.4853 0
-5.9174 10.3513 0
2.99364 3.27996 0
1.56986 3.98112 0
-9.42433 6.55918 0
-8.01543 5.94122 0
-0.938311 -2.54129 0
-1.38571 -5.22595 0
13.3971 33.6577 0
15.0085 34.5171 0
1.05776 -3.10334 0
1.18663 -1.6471 0
2.51407 7.89575 0
1.32073 6.88371 0
8.4537 9.75708 0
5.54799 9.52685 0
9.53317 20.5327 0
0.0956965 12.4838 0
-2.83124 -1.63309 0
-3.5706 -4.38837 0
-4.41666 1.40677 0
-5.3257 0.231876 0
-5.72845 -3.23798 0
-4.62894 -0.791686 0
0.387733 7.37656 0
-0.543238 6.95386 0
9.31867 5.32156 0
7.70913 4.56229 0
5.43486 -1.33636 0
7.12822 -3.36073 0
1.53396 -5.57167 0
1.59614 -3.54256 0
-6.27311 0.363029 0
-7.8915 -1.50803 0
-5.41081 4.11915 0
-6.74873 2.88901 0
7.45995 1.32433 0
9.89918 -0.399591 0
-12.4982 6.41042 0
-9.43458 6.57854 0
12.8653 6.98111 0
10.7612 6.85337 0
-2.84098 2.73529 0
-3.76953 1.38834 0
-9.53228 0.695262 0
-6.7419 2.31804 0
-3.59589 5.9916 0
-4.3756 4.02646 0
-6.84202 6.11866 0
-6.42887 5.31661 0
8.26761 6.6692 0
8.48779 7.15085 0
-0.826502 12.3432 0
-0.642034 11.3122 0
12.6903 9.9897 0
10.091 11.3472 0
10.0377 13.6677 0
1.9203 11.313 0
7.91812 8.41747 0
9.17365 9.11278 0
-7.31839 7.62897 0
-7.65471 8.38789 0
-2.28146 14.6077 0
0.829876 13.7531 0
-10.0298 12.6288 0
-4.11509 12.3383 0
9.17242 9.11497 0
12.6922 9.50037 0
-10.818 13.8064 0
-13.3473 14.2352 0
-12.7517 9.81228 0
-9.22507 10.0603 0
13.0752 17.9747 0
10.4059 16.4257 0
8.33272 10.684 0
6.2103 10.9052 0
-9.22511 10.0578 0
-7.33563 9.3452 0
2.36241 14.2566 0
4.10379 12.6294 0
-4.43591 10.7987 0
-3.65373 10.1052 0
4.84634 12.3687 0
3.90361 10.8666 0
13.0855 11.6727 0
10.316 11.8913 0
-2.90749 14.2042 0
-4.59042 13.2952 0
-12.6445 27.9611 0
0.0713558 15.2966 0
-6.5213 10.9225 0
-4.4735 12.5883 0
-12.8293 10.5234 0
-9.43403 11.1029 0
6.17865 16.3415 0
8.24492 14.5288 0
-1.08036 14.0825 0
-0.639184 12.5502 0
-10.569 18.0832 0
-13.5926 17.3294 0
10.8874 38.4268 0
2.31318 15.2915 0
-3.07293 16.7254 0
-10.4821 18.4708 0
-10.7747 13.1155 0
-13.2047 12.3437 0
-6.64395 14.679 0
-6.10116 13.5457 0
-6.39568 11.6238 0
-7.24147 12.5833 0
13.3763 13.3819 0
10.8376 14.2027 0
-11.282 19.7456 0
-14.0591 20.0417 0
6.01487 11.9869 0
4.84753 12.3665 0
10.2958 15.5438 0
8.32032 15.1461 0
3.95052 13.7181 0
6.72644 15.7949 0
-2.08109 15.9302 0
-0.467224 16.2422 0
14.4333 21.2345 0
11.8411 21.9977 0
0.296594 15.2504 0
1.30744 15.9793 0
12.4443 23.8765 0
4.03467 15.8444 0
13.2124 12.5149 0
10.1568 13.1371 0
-8.49238 14.2135 0
-8.53593 13.3497 0
-9.33406 11.4253 0
-7.2496 12.2213 0
-10.1375 17.6307 0
-6.29078 16.3679 0
8.31512 41.4317 0
8.80887 43.0946 0
1.73293 13.6238 0
2.48834 12.1008 0
-3.95204 15.8139 0
-3.89798 14.7374 0
-13.4208 16.4607 0
-10.3567 17.0052 0
-0.0742109 17.6755 0
-0.258337 17.5614 0
7.72524 12.8943 0
7.32856 13.7821 0
8.5909 11.2052 0
7.57349 12.5967 0
-11.2831 19.0865 0
-13.8164 18.284 0
-2.62588 16.7048 0
-1.65961 18.0587 0
1.60961 17.0208 0
3.39204 16.985 0
6.29804 13.9572 0
6.06102 14.4873 0
-7.58892 17.7804 0
-7.38486 18.1368 0
-9.2303 15.4628 0
-6.50212 15.633 0
4.00766 15.7848 0
4.7126 14.5901 0
-10.6806 21.6369 0
-3.87481 18.0503 0
14.8778 22.4732 0
12.7113 23.0785 0
-15.4051 27.7206 0
-13.2824 27.3494 0
8.668 16.9731 0
7.70381 15.9068 0
13.1232 18.6424 0
9.69982 19.7181 0
4.24811 18.2326 0
6.13592 18.9419 0
1.42544 19.4437 0
3.62816 18.6764 0
-0.606409 25.0598 0
-3.34765 23.9062 0
-3.10304 22.2644 0
-4.54684 19.8889 0
-6.27813 15.3129 0
-4.0892 14.6353 0
-9.90749 20.4253 0
-8.38476 19.2235 0
8.07186 23.5675 0
7.52159 20.7354 0
-13.3025 15.6297 0
-9.60669 16.04 0
-9.58491 16.0929 0
-7.37102 17.0301 0
-0.0275327 19.6272 0
0.183493 19.3606 0
13.4528 32.3572 0
2.4337 22.6365 0
16.2417 29.3954 0
14.347 29.1702 0
-14.8477 22.4547 0
-12.2582 22.7118 0
-5.44563 16.6897 0
-5.23816 17.7725 0
8.23829 17.714 0
7.03891 17.6611 0
1.45685 17.2702 0
2.06098 18.3391 0
10.5642 16.0377 0
13.4311 16.1922 0
13.0266 18.2069 0
8.68122 17.282 0
-11.7386 23.5871 0
-4.52299 20.0694 0
-2.0691 18.9694 0
-3.53741 18.8891 0
4.03321 23.1074 0
4.65069 22.4905 0
-5.89101 18.4009 0
-5.71991 19.3973 0
4.25194 17.8086 0
6.21286 16.8441 0
-1.75398 22.0252 0
-0.0496141 23.2788 0
2.1848 28.2515 0
11.4601 31.6125 0
-7.62739 40.016 0
-8.92682 41.5223 0
-2.908 41.6253 0
-2.28661 24.644 0
-14.3 20.6852 0
-12.0279 22.0822 0
-1.70355 19.548 0
-3.53215 20.6366 0
-7.52246 21.1845 0
-5.95007 21.3104 0
13.1246 27.5709 0
11.2712 30.2688 0
5.29552 20.9336 0
6.98759 21.3593 0
11.8053 22.0923 0
8.92308 22.5558 0
13.6125 19.6343 0
11.5145 21.4672 0
-12.9718 26.2606 0
-3.68252 21.7734 0
16.0502 27.2505 0
14.1331 27.962 0
2.58708 20.5402 0
3.78598 19.7634 0
-15.2862 24.3207 0
-13.1311 25.0655 0
-1.38151 26.6823 0
4.34885 24.2612 0
0.461406 20.8903 0
2.17998 21.3575 0
-8.37581 19.2854 0
-7.05608 20.1043 0
8.75582 18.8025 0
7.19916 19.5811 0
-1.34392 21.2588 0
-2.03638 20.2388 0
13.0246 18.2169 0
8.80273 18.6643 0
-2.36571 24.3665 0
-1.20314 23.076 0
-5.82899 21.7788 0
-4.775 22.271 0
-4.37885 24.262 0
-4.98271 23.6332 0
-14.0635 20.0507 0
-10.6551 21.3083 0
5.78128 24.433 0
6.44088 23.3992 0
0.0951274 29.4773 0
2.93812 41.8954 0
-8.25928 22.2376 0
-7.83839 23.2386 0
0.645114 42.937 0
0.127605 44.6063 0
-9.46168 28.9308 0
-6.79262 30.5067 0
10.0773 21.1053 0
8.81751 22.1642 0
15.2611 23.6998 0
12.9031 24.3706 0
6.20222 22.821 0
7.11703 21.7524 0
2.61364 21.0216 0
4.45719 21.7188 0
3.73331 24.8049 0
5.35159 28.4455 0
5.1443 20.2687 0
6.22127 19.2646 0
2.01912 23.0175 0
2.2548 24.2195 0
13.2999 19.0826 0
10.0601 20.8776 0
-4.1411 36.3098 0
-3.33816 31.84 0
-12.8055 29.9131 0
-15.0252 30.3151 0
0.0850267 21.3486 0
0.543966 22.6268 0
-7.18409 23.3217 0
-6.82424 23.9538 0
-9.85804 20.8253 0
-7.5223 21.1819 0
9.12557 26.1091 0
10.2164 24.429 0
-15.5057 26.2716 0
-13.2391 25.9995 0
-7.17931 24.8232 0
-7.00691 26.3648 0
4.15355 32.4926 0
8.0868 31.9374 0
-12.2746 32.0903 0
-8.88856 29.7989 0
8.88931 26.6133 0
5.97247 27.4439 0
2.69037 27.8134 0
1.7249 25.9815 0
-4.44953 25.9797 0
-4.32089 26.0342 0
9.80628 40.6678 0
10.8679 41.7416 0
0.227899 24.2549 0
1.61758 24.7325 0
-9.31928 24.3361 0
-9.39641 24.8639 0
4.19995 36.7502 0
3.48299 40.9108 0
-2.89722 25.529 0
-2.25451 26.6065 0
14.0141 29.5164 0
12.0391 29.2407 0
-5.17078 41.8039 0
-5.50628 43.5041 0
-6.79288 40.2374 0
-4.626 36.1982 0
10.5086 23.9768 0
10.1623 22.9096 0
-10.1399 27.1475 0
-8.86356 25.3033 0
12.9553 26.8513 0
10.7256 25.9787 0
-1.87385 36.9002 0
-0.22126 31.4881 0
-9.88986 22.3577 0
-10.2644 23.4899 0
16.0153 31.1602 0
14.3319 30.7391 0
15.5872 24.7925 0
13.3307 25.6284 0
11.8765 36.9248 0
9.3667 34.7539 0
-1.07473 29.4468 0
-0.901897 27.6764 0
-10.3131 36.6601 0
-12.3542 37.3512 0
3.77256 25.7149 0
2.55228 26.4208 0
7.52348 30.7119 0
7.37943 27.4327 0
6.31962 25.1241 0
5.27258 25.9543 0
-5.18697 29.2977 0
-4.4004 29.8575 0
8.49311 24.4026 0
8.26175 24.8252 0
5.84677 30.3306 0
5.67642 32.956 0
-12.5958 30.1717 0
-10.0264 28.9473 0
11.8237 37.9725 0
13.2114 38.8699 0
-8.29342 27.6941 0
-5.20035 28.5687 0
-9.42401 37.7846 0
-7.12108 34.5054 0
3.14229 31.8896 0
2.31904 32.4662 0
-15.2284 29.0474 0
-12.8054 28.5755 0
-14.6743 31.9309 0
-13.0119 31.4613 0
-1.03567 38.9587 0
[...]
CELL_DATA 375
SCALARS cell_division_count float
LOOKUP_TABLE default
1
0
1
0
0
0
1
0
0
1
1
1
1
1
1
1
0
1
1
1
1
1
1
0
1
1
1
1
1
1
1
1
2
4
3
1
1
0
0
1
1
0
0
0
1
2
3
0
1
0
0
1
1
1
1
1
0
0
3
0
1
2
3
1
1
1
1
1
1
1
2
2
1
1
1
1
2
1
1
1
3
1
1
2
9
1
1
1
1
1
1
1
1
1
1
1
1
1
1
1
1
1
2
3
5
2
1
3
5
2
2
2
5
3
2
4
2
3
5
5
6
3
3
6
3
4
6
9
3
5
4
4
8
5
6
6
5
4
5
14
5
5
5
7
5
4
6
4
10
5
3
4
6
6
6
7
6
6
11
7
8
7
6
7
8
15
11
6
8
9
4
7
8
13
6
7
7
8
8
3
6
12
10
11
9
7
11
13
9
13
8
11
10
11
9
9
5
14
6
10
8
13
10
10
8
11
6
10
11
14
8
11
13
11
9
12
9
8
9
11
13
9
11
6
15
12
11
12
11
13
8
13
13
12
15
14
10
7
12
13
13
11
12
11
15
9
14
15
13
12
7
9
13
15
9
14
14
14
13
13
12
12
7
12
15
14
8
9
15
14
14
13
14
14
13
9
14
14
14
12
14
14
14
8
15
9
9
14
13
13
13
12
12
10
12
12
13
15
7
13
13
15
10
14
14
14
8
13
15
12
14
14
15
15
13
14
15
15
12
15
14
9
11
14
14
14
13
14
14
13
10
7
10
13
14
14
15
13
15
14
13
15
15
12
14
14
14
13
10
8
14
14
13
14
14
13
9
14
14
15
14
14
14
11
10
13
14
15
15
15
14
15
14
15
15
SCALARS cell_time float
LOOKUP_TABLE default
2051
2.22229e+13
2071
4.48239e+13
2.67348e+11
1.25633e+10
2081
2.68224e+09
9.19769e+11
2071
2071
2061
2031
2081
2001
2041
1.22806e+06
2081
2051
2081
2081
1981
2021
25863.4
2081
2081
2081
2081
2081
1971
2031
1971
1931
1671
1821
1921
2061
1.00108e+18
2.94533e+15
2031
2021
107163
3425.76
2137.34
2011
1911
1711
2128.01
2021
4779.01
2396.18
2001
2041
2051
2061
2031
1.12104e+13
23246.3
1501
4117.96
2031
1951
1771
2081
2081
2081
2081
2081
2081
2081
1961
1841
2081
2071
2071
2071
1901
2061
2061
2061
1201
2051
2051
1911
831
2051
2041
2041
2031
2031
2031
2031
2031
2021
2021
2021
2011
2001
2001
1981
1971
1971
1961
1831
1651
1931
1921
1771
1551
1911
1911
1911
1201
1491
1901
1521
1841
1831
1561
1521
1411
1791
1771
1401
1771
1491
1501
1191
1711
1561
1691
1691
471
1501
1391
1421
1621
1401
1591
421
1561
1561
1551
1251
681
1521
1291
1271
921
1501
1491
1491
1491
1481
1421
1221
1411
1401
761
831
751
1211
801
1141
1211
21
891
1291
1281
831
1271
1251
1251
101
611
1081
1221
941
1211
1201
931
621
1071
831
1151
1141
771
561
251
231
891
941
1061
651
831
631
1031
421
1011
1011
411
431
981
951
941
941
931
921
901
441
891
881
161
871
91
321
831
611
831
831
551
831
821
801
161
131
771
771
761
541
751
301
291
261
261
461
691
211
671
661
51
661
281
61
1
631
421
271
111
621
311
401
241
301
301
301
301
301
371
541
361
361
301
321
81
41
471
471
21
461
101
241
441
241
431
431
431
421
421
241
421
181
421
411
281
221
401
281
281
371
201
361
351
341
321
321
231
171
311
311
301
301
111
301
301
301
111
291
21
281
21
111
281
21
281
101
271
141
261
261
81
251
251
81
121
241
161
91
71
101
61
211
211
201
91
181
171
161
161
21
151
21
141
131
131
131
121
111
111
111
111
101
101
101
101
101
91
91
91
81
81
81
71
61
61
51
41
21
21
21
21
21
21
21
1
SCALARS cell_area float
LOOKUP_TABLE default
3.24178
3.29994
3.29342
3.35593
3.35125
3.34376
3.32723
3.37476
3.34868
3.28166
3.33686
3.28272
3.38683
3.31974
3.30609
3.32986
3.39853
3.28946
3.34693
3.39748
3.39252
3.3401
3.33942
3.37237
3.35941
3.37698
3.43975
3.40369
3.39207
3.32992
3.24682
3.29762
3.35002
3.33487
3.44732
3.25019
3.34558
3.25225
3.26071
3.24822
3.23638
3.27756
3.26163
3.27821
3.21991
3.28491
3.25743
3.26311
3.25893
3.24782
3.26752
3.27306
3.21611
3.25675
3.24438
3.24183
3.20927
3.2169
3.27193
3.19592
3.24582
3.30682
3.26986
3.28066
3.33773
3.2854
3.39918
3.35265
3.28074
3.35824
3.452
3.35311
3.35778
3.28692
3.24851
3.27522
3.34232
3.35179
3.23136
3.22169
3.22305
3.25841
3.33583
3.33041
3.36759
3.22224
3.2966
3.25188
3.37106
3.28784
3.22411
3.20342
3.21564
3.30409
3.25103
3.24432
3.25862
3.3243
3.26273
3.30078
3.28994
3.2636
3.40157
3.23365
3.2964
3.24088
3.32927
3.38724
3.29229
3.27886
3.26025
3.27215
3.27765
3.29316
3.24639
3.31625
3.3575
3.40434
3.25694
3.42791
3.30169
3.35129
3.27233
3.34639
3.40636
3.26703
3.44244
3.39609
3.21765
3.28088
3.33543
3.20956
3.29377
3.37111
3.31854
3.35286
3.36547
3.26971
3.36665
3.30534
3.25178
3.28379
3.31656
3.27481
3.25214
3.34922
3.39884
3.27304
3.35735
3.31573
3.30145
3.23903
3.37103
3.35953
3.38549
3.38766
3.3403
3.30792
3.35471
3.28132
3.26665
3.41185
3.29336
3.31917
3.36644
3.28645
3.35777
3.32857
3.29806
3.35864
3.27483
3.32655
3.42859
3.27142
3.27966
3.23767
3.36114
3.37085
3.38612
3.24251
3.30022
3.31126
3.42838
3.37959
3.38907
3.3159
3.3744
3.38015
3.2428
3.29973
3.28379
3.40304
3.39803
3.28773
3.35468
3.27025
3.24302
3.29541
3.24463
3.33893
3.27048
3.31111
3.41181
3.35179
3.30371
3.38229
3.29328
3.33472
3.37731
3.3536
3.31326
3.38178
3.34245
3.34526
3.25609
3.29824
3.34404
3.28535
3.36659
3.36391
3.42716
3.34901
3.38568
3.28629
3.33584
3.30716
3.38781
3.31815
3.29921
3.35824
3.22776
3.34415
3.39576
3.26391
3.32799
3.38446
3.40855
3.29506
3.3738
3.37619
3.2807
3.34706
3.26405
3.31413
3.32675
3.33149
3.37544
3.28993
3.32508
3.31286
3.29792
3.25751
3.29778
3.32387
3.29544
3.36459
3.28465
3.33299
3.36811
3.32899
3.30436
3.30521
3.3017
3.33816
3.34137
3.31572
3.28417
3.29119
3.29139
3.33206
3.31014
3.28578
3.36498
3.3475
3.35678
3.29593
3.32909
3.3364
3.3564
3.30409
3.26588
3.34539
3.33138
3.27316
3.34515
3.2616
3.30966
3.2918
3.2972
3.31803
3.31993
3.30665
3.32966
3.29397
3.35779
3.33537
3.33752
3.34752
3.3152
3.33658
3.31329
3.33146
3.2874
3.32045
3.31971
3.30478
3.27428
3.35828
3.32282
3.29544
3.3021
3.31017
3.28177
3.3166
3.33656
3.27188
3.38282
3.37882
3.33982
3.32412
3.34296
3.29241
3.29921
3.26943
3.27425
3.30888
3.29454
3.31558
3.29518
3.29813
3.30321
3.30416
3.32018
3.3129
3.34511
3.2927
3.28213
3.24803
3.32166
3.29316
3.31338
3.27088
3.28213
3.30593
3.32264
3.30773
3.33657
3.29112
3.26045
3.36153
3.34625
3.34144
3.27249
3.31972
3.26899
3.29951
3.32438
3.34822
3.34664
3.31352
3.27883
3.33527
3.30144
3.35067
3.33076
3.25812
3.28644
3.31035
3.32907
3.28556
3.28286
3.29271
3.30138
3.3042
3
SCALARS cell_perimeter float
LOOKUP_TABLE default
6.93039
6.94551
6.96241
7.20356
7.13265
6.8203
7.07582
7.65057
6.93927
6.9258
7.39046
7.00372
6.8023
7.23912
7.04565
6.79712
7.1824
6.96995
6.93051
7.01813
6.93623
7.26574
7.24416
7.57997
7.58619
6.95125
8.04301
7.08934
6.89156
7.07013
6.95166
7.0494
8.21687
7.03076
7.04467
7.34359
7.90891
7.5285
7.83779
7.64817
8.28521
8.6875
8.20841
7.77869
7.38786
9.55276
8.0037
7.67608
8.06832
7.67231
8.15134
8.47161
7.79507
8.08389
7.67989
7.2203
7.44329
7.39555
8.40184
7.32884
7.74008
9.62312
8.60524
7.03675
7.14399
7.23929
6.91319
7.06824
7.1749
6.86932
7.85389
7.05409
7.16379
7.07784
7.24057
7.21936
7.81186
7.2642
6.93664
7.88128
8.19399
6.79161
7.01584
7.91008
7.51031
7.99125
6.82568
7.99349
7.05848
7.00062
7.80661
7.31604
7.66376
7.1301
7.94463
7.98885
7.37413
6.94646
8.24853
7.18454
7.17123
6.94678
7.14622
8.02816
7.1696
7.03123
6.84962
7.29161
7.30199
8.58787
8.59347
8.59851
9.89739
7.21223
7.24948
7.0688
6.92222
7.52428
8.22531
6.94599
7.6913
7.2515
8.96504
7.24682
7.2442
8.16166
7.07732
7.03271
7.70411
7.02406
7.29488
7.77454
7.53522
7.4073
7.23515
7.12946
7.05399
7.70802
6.89498
7.12714
8.17497
6.89624
7.58284
7.59602
7.38391
7.21789
7.37719
8.92215
7.10159
7.29509
7.27172
7.88365
7.0766
7.22511
6.86009
6.88903
8.0165
7.02301
7.61714
7.50173
7.39623
6.98925
9.22778
7.35491
7.0353
7.19356
6.96058
7.24201
7.40284
7.14927
9.22952
7.91561
7.10899
7.30389
7.16623
7.79229
7.04038
7.12098
7.28332
7.95081
10.4224
6.84719
7.21396
7.15932
6.90523
7.38975
6.8984
6.91923
7.31481
6.91224
8.726
7.05687
7.61095
7.05762
6.9466
7.07603
7.90942
7.09957
7.33336
7.00182
7.96735
6.97963
7.34822
7.13212
7.10732
6.92614
9.73178
7.03785
7.02708
6.99766
9.30442
6.94981
7.09147
7.14544
7.33499
7.00039
7.38132
7.5881
7.09593
7.16147
7.03952
7.13295
7.06292
8.8343
7.11148
7.59949
7.12506
7.1914
7.40246
7.12401
7.46649
7.22529
7.01216
7.06005
7.12273
6.84944
7.03663
7.07552
6.935
7.14473
6.97629
6.93219
7.28367
7.41535
6.89822
6.93003
6.84863
7.05304
6.80397
7.02522
7.14882
7.65105
6.93472
6.94819
7.15484
7.20783
7.0475
7.4328
6.81282
7.15631
7.24651
7.32355
7.07284
7.18396
6.81205
7.08461
7.48087
7.32469
6.98667
6.99561
6.77823
6.87685
7.02072
7.47372
6.9616
7.12925
7.00491
7.09791
7.16893
6.86952
7.27076
6.95916
6.90707
8.0783
6.88051
7.32142
7.64955
7.08873
7.14544
7.044
6.81034
7.47003
7.09189
7.12536
7.00834
6.89787
6.833
6.86417
7.24513
7.20652
7.16289
6.83141
7.2404
7.15832
7.03197
7.13537
7.37245
6.95106
6.84225
7.52449
6.81074
6.85757
6.92482
6.81184
7.13244
6.96146
6.95272
7.51052
6.90038
7.05169
6.97794
7.14625
7.15288
6.94182
6.91862
7.063
6.89982
6.87585
7.21203
6.77478
7.14307
7.07969
7.22481
6.81371
7.2732
6.94301
7.1302
7.21842
6.83134
6.81869
6.81833
6.91661
7.04355
7.57769
6.97528
7.0183
6.96909
6.94216
7.37334
7.72168
6.92707
7.27186
7.34316
6.88793
7.00058
6.89269
7.39183
6.88917
7.02599
6.80893
6.96915
6.90257
6.7965
7.50778
7.02988
6.96386
6.94527
7.2365
6.83511
7.04343
6.95436
7.02258
6.80192
6.9388
17
SCALARS cell_frequency_modifier float
LOOKUP_TABLE default
9.42858e+17
2.40002e+15
1.98403e+15
5.22613e+14
1.54203e+14
2.20883e+13
1.76975e+11
2.45632e+12
1.76146e+14
1.2743e+16
2.8448e+12
1.87171e+14
3.38073e+09
7.75084e+10
1.51888e+13
6.94552e+13
1.37126e+12
4.83502e+11
2.37303e+09
2.78946e+07
2.99806e+09
4.29988e+10
5.95779e+11
7.55485e+10
2.71822e+09
1.51401e+08
1.9065e+07
3.99934e+07
1.0345e+09
6.29666e+09
1.99265e+13
4.02923e+09
9.27509e+07
9.26791e+06
390565
1.3455e+11
2.28912e+09
8.23829e+18
2.39039e+18
3.5655e+17
3.3784e+15
5.82605e+14
2.05343e+14
5.97636e+12
1.1884e+12
1.02128e+10
4.54357e+08
6.67409e+10
3.79922e+11
5.6631e+13
1.66625e+14
5.43109e+14
2.76322e+17
2.35136e+18
1.3992e+19
10000
1.30254e+17
5.08619e+13
2.49891e+06
1.38243e+13
5.30504e+16
4.01286e+07
1.47666e+09
5.22583e+14
2.01322e+11
1.64489e+13
1.91886e+07
2.5663e+08
7.47776e+11
2.18808e+08
3.21714e+06
6.17032e+06
3.55361e+08
2.66313e+15
2.39852e+15
5.60957e+13
3.03561e+07
5.24502e+10
4.02874e+12
1.01975e+19
4.60043e+06
1.29618e+18
4.87962e+08
3.50085e+07
323.355
1.93021e+18
5.00215e+13
4.5022e+17
2.42379e+08
3.84667e+11
1.60547e+18
10000
1.77087e+16
3.32013e+11
1.26365e+16
1.51351e+12
1.72924e+11
1.81796e+12
2.23419e+15
7.96638e+10
7.10717e+11
6.75172e+11
2.85376e+06
1.60722e+09
831854
9.10904e+10
2.83366e+08
245769
2.40759e+07
3.07957e+10
3.79311e+07
1.30204e+10
2.33967e+06
5.31281e+07
2.55023e+10
1.29298e+06
3.62775e+07
2.51004e+06
4.08375e+08
40944.4
16208.2
5.31384e+06
4.38883e+09
67958.8
386035
1.05067e+06
14933.9
4495.7
1.36009e+08
9.80079e+07
1.73731e+06
4.43115e+07
25.3368
857755
69285.4
430151
69439.6
44056.1
119539
107.13
1.3517e+08
1.01311e+08
1.22907e+07
2.99733e+06
117.464
1.32482e+06
40012
6.85962e+06
46.7851
1.0644e+06
8.63505e+06
425499
12953.8
28466.6
96530.4
6939.32
124657
346127
287.9
17541.9
2560.62
11710
10742.1
11392.1
3307.88
96.7576
95.7729
330781
8059.48
114.994
1.54719e+07
53682.6
2083.98
236.103
571.583
50655.5
12364.6
2605.96
5295.59
1.34395e+07
21642
311.077
846.822
161.362
2177.71
35365.5
142.711
18.7893
125.531
1.87342
94450.8
482.446
507.245
193.005
721.616
21658.3
99616.7
141.411
1097.93
2098.16
11018.4
24.4822
539.659
2119.22
3630.5
265.835
25573.4
130.948
284.454
16.6357
1618.17
61.6162
1.7944
207.02
164.872
17.2909
234.572
7969.43
203.699
497.219
17.7048
2025.6
50.851
165910
0.794795
1.31785
161.842
199.507
3214.22
40.6748
5295.31
43.9878
2.27977
394.492
10.6813
6.50253
20.4909
3.13695
53.9086
36.5055
103.493
20.2687
535.66
1.3102
0.675233
95.0162
12.9891
183.342
0.775385
218.965
6.71658
4065.69
2.28075
2.92392
2.66709
7.802
622.88
25.1984
3.34451
38.7782
4.4367
8.78329
1.54453
10.2661
0.564499
1.78529
1268.69
32.8839
6.93527
6.35778
1.12897
106.879
5.42131
1.35378
22.0643
3.2903
14.8039
20.3965
42.6555
1.60973
2338.31
0.95458
9.45143
21210.2
1.81592
158.458
21.9968
16.7772
7.16265
20.2904
1.53396
15.5621
4.88521
8.39646
2.95983
10.0513
1.25025
1.08529
1.8858
2.41974
36.5349
4.12552
26.7321
14.6356
9.1875
34.8844
121.54
3.23796
1.0868
9.67289
1.4731
1.27338
409.15
2.20723
2.02374
122.12
2.73459
0.534151
2.6951
5.39366
0.520273
5.95688
3.33134
124.526
100.052
4.93233
3.48915
0.884632
4.65348
1.99055
2.00447
1.31691
1.01135
1.45655
0.482797
17.1344
193.115
422.959
1.61632
4.20257
1.02716
100.901
180.928
1.62764
0.915175
2.75681
0.575642
12.6691
103.759
0.588704
0.869227
0.53565
213.839
1.06233
160.288
1.7952
1.01023
0.450996
0.593636
1.22124
123.86
0.639709
1.9533
0.565683
0.759811
103.847
142.786
1.0682
0.719188
193.417
100.142
22.1124
1.64477
1.39211
1
SCALARS cell_area_modifier float
LOOKUP_TABLE default
100
1.70776
3.59615
0.404762
0.427918
0.486346
0.669052
0.345018
0.440518
100
0.53505
100
0.322692
0.764826
1.17241
0.624374
0.308072
12.8966
0.453883
0.310631
0.31455
0.509537
0.516575
0.34986
0.380081
0.340309
0.290147
0.301856
0.315878
0.619205
100
2.21302
0.43287
0.576271
0.287914
100
0.465174
100
100
100
100
100
100
100
100
100
100
100
100
100
100
100
100
100
100
100
100
100
100
100
100
1.13678
100
100
0.527504
100
0.305556
0.418345
100
0.385965
0.28681
0.413717
0.392034
41.5556
100
100
0.496021
0.423077
100
100
100
100
0.559043
0.614122
0.359962
100
2.3522
100
0.353163
15.5833
100
100
100
1.36496
100
100
100
0.700375
100
1.63319
9.58974
100
0.304312
100
2.42857
100
0.634975
0.321306
5.84375
100
100
100
100
4.45238
100
0.842342
0.396186
0.300643
100
0.293564
1.50201
0.425484
100
0.459459
0.29944
100
0.289026
0.311927
100
100
0.563253
100
3.43119
0.351504
0.797441
0.416018
0.367026
100
0.361702
1.21036
100
100
0.832962
100
100
0.43539
0.306809
100
0.398296
0.861751
1.53279
100
0.354839
0.37816
0.326923
0.319932
0.506089
1.08721
0.406964
100
100
0.295886
3.77778
0.78903
0.365234
93.5
0.394099
0.657293
2.03261
0.382022
100
0.681239
0.291277
100
100
100
0.376258
0.35653
0.32409
100
1.66964
0.986807
0.292416
0.335727
0.317218
0.851936
0.346617
0.334227
100
1.74766
100
0.303079
0.309347
19.6842
0.40919
100
100
2.79104
100
0.520167
100
1
0.297061
0.420697
1.39033
0.331267
3.97872
0.580745
0.338768
0.411441
0.949239
0.33274
0.492754
0.471033
100
1.92784
0.483204
100
0.36346
0.37251
0.29472
0.437939
0.3255
100
0.554896
1.11976
0.318569
0.806034
1.83333
0.387967
100
0.480103
0.313233
100
0.663121
0.328358
0.298246
3.01613
0.348231
0.341865
100
0.451146
100
0.903382
0.67509
0.594595
0.343434
11
0.6875
0.973958
2.08939
100
2.14943
0.71374
2.59722
0.370664
100
0.58529
0.358238
0.651568
1.27211
1.23026
1.47244
0.52381
0.502688
0.871795
100
7.63265
6.92593
0.589905
1.04178
100
0.368836
0.448441
0.400428
2.51007
0.640411
0.55081
0.402583
1.3405
100
0.468085
0.6042
100
0.474018
100
1.0565
6.33898
2.28049
0.814815
0.757085
1.15432
0.62963
3.2807
0.38999
0.567527
0.53125
0.445769
0.892601
0.538905
0.937343
0.599359
26.7143
0.742063
0.780793
1.25084
100
0.383984
0.720617
2.69065
1.44402
1.02747
100
0.823789
0.546784
100
0.329806
0.337241
0.513032
0.706994
0.489529
5.42029
1.8794
100
100
1.07163
3.14286
0.882075
2.89922
1.97884
1.41667
1.3169
0.749499
0.96144
0.477041
5.05405
100
100
0.734774
4.20225
0.925743
100
100
1.19108
0.727626
1.10324
0.542816
8.5
100
0.374374
0.462299
0.499332
100
0.772727
100
1.78947
0.693878
0.443128
0.456654
0.914425
100
0.571865
1.56485
0.43038
0.609121
100
100
1.01355
0.645941
100
100
4.73418
1.59829
1.29412
1
SCALARS cell_Gaussian_modifier float
LOOKUP_TABLE default
9.42858e+15
1.40536e+15
5.51709e+14
1.29116e+15
3.60356e+14
4.54168e+13
2.64517e+11
7.11937e+12
3.9986e+14
1.2743e+14
5.31689e+12
1.87171e+12
1.04766e+10
1.01341e+11
1.29552e+13
1.1124e+14
4.45109e+12
3.74908e+10
5.22828e+09
8.97997e+07
9.53126e+09
8.43879e+10
1.15333e+12
2.1594e+11
7.15168e+09
4.44891e+08
6.5708e+07
1.32492e+08
3.27499e+09
1.01689e+10
1.99265e+11
1.82069e+09
2.14269e+08
1.60825e+07
1.35654e+06
1.3455e+09
4.92099e+09
8.23829e+16
2.39039e+16
3.5655e+15
3.3784e+13
5.82605e+12
2.05343e+12
5.97636e+10
1.1884e+10
1.02128e+08
4.54357e+06
6.67409e+08
3.79922e+09
5.6631e+11
1.66625e+12
5.43109e+12
2.76322e+15
2.35136e+16
1.3992e+17
100
1.30254e+15
5.08619e+11
24989.1
1.38243e+11
5.30504e+14
3.53003e+07
1.47666e+07
5.22583e+12
3.8165e+11
1.64489e+11
6.27992e+07
6.13442e+08
7.47776e+09
5.66911e+08
1.1217e+07
1.49144e+07
9.06456e+08
6.4086e+13
2.39852e+13
5.60957e+11
6.11992e+07
1.23973e+11
4.02874e+10
1.01975e+17
46004.3
1.29618e+16
8.72852e+08
5.70059e+07
898.305
1.93021e+16
2.12658e+13
4.5022e+15
6.86308e+08
2.46845e+10
1.60547e+16
100
1.77087e+14
2.43239e+11
1.26365e+14
1.51351e+10
1.72924e+09
2.5957e+12
2.23419e+13
4.87781e+10
7.41122e+10
6.75172e+09
9.37774e+06
1.60722e+07
342528
9.10904e+08
4.46263e+08
764906
4.11994e+06
3.07957e+08
379311
1.30204e+08
23396.7
1.19325e+07
2.55023e+08
1.53498e+06
9.15668e+07
8.34891e+06
4.08375e+06
139474
10791
1.24889e+07
4.38883e+07
147910
1.28919e+06
10506.7
51669.7
14412.7
1.36009e+06
980079
3.08442e+06
443115
7.38426
2.44025e+06
86884.7
1.03397e+06
189195
440.561
330489
88.5111
1.3517e+06
1.01311e+06
1.47554e+07
29973.3
1.17464
3.04284e+06
130414
68596.2
117.463
1.23515e+06
5.63356e+06
4254.99
36506.1
75276.7
295270
21690
246315
318363
707.434
175.419
25.6062
39576.2
2843.51
14438.2
9056.86
1.03484
243.017
503247
3965.09
301.013
154719
78801.4
7154.62
2.36103
5.71583
506.555
32862.2
7309.23
16339.9
134395
12962
315.236
2895.95
480.634
6865.01
41511.9
411.724
56.2171
1.25531
1.07196
944.508
1591.81
1639.73
9.80504
1763.52
216.583
996.167
50.666
10.9793
4033.62
110.184
24.4822
1816.66
5037.4
2611.24
802.479
6427.54
225.483
839.673
40.4328
1704.7
185.178
3.64157
439.503
1.64872
8.96906
485.451
79.6943
560.444
1334.78
60.0733
4625.3
156.224
1659.1
1.43233
1.1769
508.028
247.517
1753.21
104.841
52.9531
91.6216
7.27819
3.94492
16.1077
19.8032
68.7047
1.04006
154.807
106.783
1.03493
44.9272
5.3566
1.45032
1.00021
159.8
37.8213
16.6675
1.12783
224.819
3.21462
40.6569
1.0611
4.09661
1.0269
21.0487
6.2288
43.0529
9.33601
59.5152
3.48767
7.13936
1.04896
19.5989
1.12296
2.04783
12.6869
4.30832
1.00135
10.7776
1.08369
1.06879
14.6984
3.01885
55.1017
1.31084
23.1163
37.03
105.954
1.20084
23.3831
2.03933
15.6429
212.102
3.83091
1.58458
20.8205
2.64668
3.14084
24.9019
2.02614
13.4816
7.75887
2.55935
7.5895
17.7106
2.35342
2.43464
2.1127
4.4901
38.977
6.88322
1.00067
19.7229
11.7669
27.8889
1.2154
8.43255
1.50815
3.59501
1.02014
1.23933
4.0915
2.67937
3.70117
1.2212
8.29151
1.58389
5.25329
7.62899
1.0628
1.099
1.77256
1.24526
1.00052
4.60263
1.11019
1.0029
1.60508
1.00592
1.41492
1.00001
1.34937
1.51496
1.01207
3.39023
1.93115
4.22959
2.19976
1.00008
1.10955
1.00901
1.80928
1.36652
1.25775
2.49882
1.06047
1.49048
1.03759
1.5725
1.88023
1.07273
2.13839
1.37479
1.60288
1.0032
1.45592
1.01776
1.29997
1.33553
1.2386
1.11864
1.24823
1.31438
1.24739
1.03847
1.42786
1.05392
1.1134
1.93417
1.00142
4.6708
1.02908
1.07572
1
