# vtk DataFile Version 2.0
2D-vertex
ASCII
DATASET UNSTRUCTURED_GRID
POINTS 324 float
0.263679 -2.00959 0
2.85519 -1.79221 0
3.23513 -0.888668 0
2.25309 0.151724 0
-0.147271 0.333573 0
-0.895024 -1.06916 0
3.84737 -0.851246 0
4.4223 0.0140802 0
3.54914 1.42638 0
2.40191 1.09362 0
1.22344 2.24804 0
-0.549835 2.81588 0
-1.35278 1.59251 0
-1.61487 1.53699 0
-2.13099 0.0499011 0
-1.65721 -0.812951 0
5.01378 -0.135389 0
5.91276 0.79658 0
4.12171 2.16117 0
3.75579 2.07152 0
2.95712 2.9548 0
1.75787 2.87471 0
1.21276 6.15659 0
0.0829073 6.10667 0
-0.635132 4.36192 0
-2.02012 3.6546 0
-2.0098 1.94193 0
-3.39831 1.68136 0
-3.87588 0.810775 0
-3.59533 0.106762 0
7.01723 0.829542 0
7.69675 1.67175 0
7.44762 2.94555 0
5.30177 3.85964 0
5.83763 4.50321 0
3.43029 5.55886 0
2.73721 6.63907 0
1.67714 6.78149 0
0.582746 9.51844 0
-1.13552 9.44222 0
-0.762537 6.88954 0
-2.56666 6.10186 0
-3.52469 4.83648 0
-4.65787 4.94149 0
-5.34208 3.81779 0
-6.80944 3.60766 0
-7.1052 2.69505 0
-5.52329 1.16421 0
7.96973 3.75057 0
7.64955 4.63095 0
7.00793 4.92262 0
6.24909 6.882 0
3.83605 7.75503 0
3.71759 8.46442 0
2.19082 9.73915 0
2.74974 10.5935 0
-2.16949 10.6869 0
-2.15577 10.0689 0
-3.35484 9.02399 0
-3.09968 7.10903 0
-4.90637 7.67839 0
-6.2584 6.6551 0
-8.25346 5.59082 0
-8.15531 4.93913 0
8.59305 5.15216 0
8.61335 5.24398 0
7.23042 7.01882 0
7.50215 8.41172 0
6.29894 9.32481 0
6.44589 10.1855 0
5.72855 10.9141 0
5.68925 11.3387 0
-2.69443 12.9613 0
-2.94673 12.7557 0
-6.55313 11.3938 0
-5.94662 10.1649 0
-6.7367 9.2108 0
-6.60217 8.77653 0
-9.16954 6.3853 0
-9.02308 5.84215 0
10.0596 5.65642 0
10.3384 6.79679 0
9.59726 7.79151 0
10.5977 8.27329 0
10.2231 9.90665 0
10.3926 10.8391 0
8.5724 15.9492 0
7.15532 19.1859 0
-7.26473 18.7973 0
-7.62064 18.0036 0
-10.2144 11.761 0
-9.94367 10.9313 0
-10.3739 10.3851 0
-9.7038 9.02531 0
-10.4869 7.81634 0
-10.1149 6.61943 0
3.73198 -3.58651 0
4.98989 -3.01137 0
5.89818 -2.55841 0
8.32367 -0.84097 0
9.61098 0.692654 0
10.8892 3.12852 0
11.0536 3.46222 0
11.7327 4.67646 0
12.3872 6.74166 0
12.5457 7.67422 0
12.3131 11.4289 0
8.04799 20.7243 0
-8.54869 20.3757 0
-12.1913 12.1763 0
-12.4048 10.5965 0
-12.3895 7.72887 0
-11.7498 5.61424 0
-10.9784 4.3326 0
-10.3493 3.40366 0
-9.33835 1.7584 0
-7.37387 -0.535436 0
-5.21871 -2.04284 0
-3.03863 -3.09677 0
0.022222 -3.94873 0
11.6579 13.687 0
8.79582 12.7756 0
-11.3419 15.8218 0
-9.19804 15.3772 0
-0.441061 4.11537 0
1.06143 4.24614 0
-2.02149 6.002 0
-1.42149 4.35956 0
4.83568 5.83363 0
5.17035 6.81691 0
0.255685 10.8752 0
0.0997199 9.94091 0
-1.36089 8.05319 0
-2.75091 7.79918 0
6.24857 6.88444 0
5.3631 8.69652 0
4.40856 9.04858 0
4.24345 10.2391 0
2.32499 11.3161 0
2.32344 11.3142 0
-2.87052 11.1255 0
-4.5123 10.0587 0
-4.12368 9.16491 0
-4.97754 8.30982 0
1.3135 1.74078 0
-0.195309 0.688808 0
6.63557 3.0999 0
5.58465 1.38518 0
5.29953 3.86075 0
3.26315 4.48594 0
-8.81066 13.1555 0
-6.22791 11.9299 0
3.22786 4.46729 0
1.67741 5.07197 0
-9.61083 8.78845 0
-8.24356 7.90939 0
-0.96704 -1.10282 0
-1.40165 -3.6851 0
1.50512 20.5753 0
1.67916 22.8081 0
1.13608 -1.64974 0
1.24686 -0.286198 0
2.61608 8.76594 0
1.43844 7.56138 0
8.69643 11.9798 0
5.81871 11.1577 0
4.07632 19.9503 0
0.230422 12.5477 0
-2.9562 -0.198942 0
-3.68134 -2.8191 0
-4.79372 2.79758 0
-5.63223 1.78649 0
-5.9401 -1.60324 0
-4.85859 0.691607 0
0.396545 8.03058 0
-0.692517 7.50336 0
9.55927 7.46858 0
7.9898 6.5271 0
5.73094 0.262763 0
7.39275 -1.61662 0
1.6447 -4.02932 0
1.67833 -2.07954 0
-6.62256 1.95171 0
-8.17806 0.24427 0
-5.98091 5.49773 0
-7.25684 4.50207 0
7.78135 3.14447 0
10.1799 1.64955 0
-12.4611 9.18046 0
-9.70567 9.02364 0
12.6234 9.81802 0
10.7198 9.46963 0
-3.15269 3.91502 0
-4.01485 2.74165 0
-9.85053 2.62505 0
-7.27473 3.99853 0
-4.0227 6.98864 0
-4.83688 5.3083 0
-7.3105 7.91116 0
-6.92226 6.84295 0
8.45764 8.73441 0
8.6567 9.47802 0
-0.92056 12.3454 0
-0.797632 11.5424 0
11.5705 14.2067 0
9.36993 14.3958 0
8.04085 17.2244 0
2.11568 11.6346 0
7.9547 10.43 0
9.16441 11.664 0
-7.8496 9.55873 0
-8.07883 10.6125 0
-2.35109 14.7623 0
0.771311 13.8746 0
-8.74328 15.9912 0
-4.24542 13.0235 0
9.16461 11.672 0
11.9102 12.805 0
-8.40771 17.9329 0
-9.717 19.2304 0
-11.8815 13.5582 0
-9.18825 12.7947 0
6.25539 21.6637 0
5.77356 20.1913 0
8.43417 13.0556 0
6.39816 12.6125 0
-9.16759 12.6851 0
-7.58773 11.392 0
2.07648 14.7877 0
4.00321 13.5704 0
-4.9116 11.9248 0
-4.13506 10.7607 0
4.66686 13.542 0
4.22051 11.7808 0
11.1082 16.2566 0
9.29106 15.4998 0
-2.78418 14.5386 0
-4.28753 14.8182 0
-0.823286 20.1432 0
-0.0848774 15.2802 0
-6.73578 12.867 0
-4.63685 13.6661 0
-11.6386 14.5727 0
-9.10423 14.0474 0
3.26242 18.3361 0
6.57083 16.8164 0
-1.12078 14.1527 0
-0.685139 12.5894 0
-5.09237 20.6928 0
-5.9016 22.1908 0
0.660404 20.1648 0
1.61077 16.1678 0
-2.38219 17.4765 0
-3.86671 20.6445 0
-9.09426 16.7725 0
-10.8713 17.3234 0
-5.3681 16.7981 0
-5.06289 15.3818 0
-6.32853 13.5602 0
-6.60431 14.8638 0
9.6799 19.0832 0
8.19012 18.1687 0
-2.35991 21.139 0
-2.0872 23.121 0
5.90355 13.4997 0
4.69273 13.5008 0
6.81886 19.131 0
6.05319 17.5616 0
3.44262 14.7592 0
4.68252 17.2803 0
-1.93608 16.2569 0
-0.651285 16.3291 0
5.03224 22.1403 0
3.97898 20.2505 0
0.0311725 15.2662 0
1.04348 16.3621 0
2.18442 20.154 0
2.76468 18.1513 0
10.5029 17.6528 0
8.63715 16.7631 0
-6.86985 16.8431 0
-7.3638 15.9454 0
-8.80188 14.424 0
-6.83615 14.3567 0
-5.57267 19.6766 0
-4.41899 17.2981 0
0.15677 20.5292 0
0.405005 22.9214 0
1.58418 13.923 0
2.622 12.6747 0
-3.52634 16.6281 0
-3.62341 15.0978 0
-7.35679 21.3063 0
-6.13236 19.6016 0
0.509357 18.2287 0
-0.172918 17.9199 0
7.01331 15.1418 0
6.26829 15.6959 0
8.49696 13.8323 0
7.02124 14.6164 0
-3.58864 21.0591 0
-4.2307 22.8625 0
-2.38037 17.4747 0
-1.00945 18.5067 0
0.903948 17.9765 0
2.12383 18.6122 0
5.39069 15.4198 0
4.58903 16.1457 0
-4.2437 18.4281 0
-3.33607 19.0202 0
-6.4345 18.8945 0
-5.1755 17.1488 0
2.65235 16.8794 0
3.88638 15.912 0
-1.71074 20.3328 0
-2.6676 18.8304 0
3.05158 22.6528 0
2.91348 20.6072 0
-0.745363 23.0246 0
-1.1674 20.4559 0
4.89739 19.7134 0
5.24901 17.6951 0
5.64381 21.902 0
4.56953 19.808 0
CELLS 163 1079
5 0 160 161 4 5
6 2 6 7 8 9 3
6 9 144 145 4 161 3
8 13 14 15 156 5 4 145 12
8 7 16 178 17 147 18 19 8
7 9 8 19 20 21 10 144
6 22 23 24 124 125 153
8 25 26 13 12 11 124 24 127
7 13 26 27 28 29 168 14
6 30 31 32 146 147 17
7 18 33 148 149 152 20 19
5 20 152 153 125 21
7 22 37 163 174 175 40 23
5 24 23 40 126 127
5 26 25 192 193 27
7 28 27 193 170 171 47 173
9 148 33 146 32 186 48 49 50 34
5 52 36 35 128 129
6 36 52 53 162 163 37
6 38 54 55 139 130 131
7 40 175 132 133 59 41 126
6 42 41 59 196 197 43
7 44 43 197 184 185 195 45
8 49 64 65 177 66 134 51 50
7 51 134 135 136 53 52 129
6 53 136 137 55 54 162
8 55 137 70 165 71 233 138 139
7 57 56 140 231 141 142 58
7 59 133 58 142 143 60 196
6 61 60 143 77 198 199
5 65 80 81 176 177
6 67 200 201 208 69 68
7 69 208 209 216 164 165 70
5 71 225 264 265 233
7 73 72 236 291 237 241 215
5 211 91 92 93 210
8 77 76 210 93 189 154 155 198
5 97 6 2 1 96
5 98 16 7 6 97
5 99 30 17 178 179
4 186 187 101 48
5 102 64 49 48 101
5 103 80 65 64 102
6 176 81 104 105 83 82
4 191 83 105 190
5 217 120 121 164 216
5 122 123 214 254 255
5 110 92 91 90 109
5 93 92 110 188 189
5 113 79 78 95 112
5 114 63 62 79 113
5 114 194 195 185 63
4 116 172 173 47
5 118 15 14 168 169
5 119 0 5 156 157
5 180 181 160 0 119
4 100 31 30 99
4 104 81 80 103
5 249 292 293 284 248
4 112 95 94 111
5 47 171 182 183 116
6 120 204 205 298 224 121
5 122 242 243 282 123
5 124 11 10 21 125
6 126 41 42 192 25 127
5 128 34 50 51 129
6 130 203 56 57 39 131
5 132 39 57 58 133
5 134 66 67 68 135
6 136 135 68 69 70 137
8 138 207 167 247 202 203 130 139
5 140 73 215 230 231
6 142 141 75 76 77 143
5 144 10 11 12 145
4 146 33 18 147
5 148 34 128 35 149
7 150 221 226 227 74 151 240
7 152 149 35 36 37 22 153
5 154 94 95 78 155
4 156 15 118 157
5 222 223 266 87 107
6 160 181 1 2 3 161
5 162 54 38 174 163
6 164 121 224 225 71 165
7 166 273 317 276 305 277 244
4 168 29 117 169
6 170 44 45 46 182 171
5 172 117 29 28 173
6 174 38 131 39 132 175
6 176 82 200 67 66 177
4 178 16 98 179
4 180 96 1 181
4 182 46 115 183
6 184 61 199 62 63 185
5 186 32 31 100 187
5 188 111 94 154 189
5 190 106 85 84 191
6 192 42 43 44 170 193
5 194 115 46 45 195
5 196 60 61 184 197
6 198 155 78 79 62 199
6 200 82 83 191 84 201
6 202 72 73 140 56 203
4 204 234 235 205
6 206 261 87 266 267 245
5 208 201 84 85 209
6 210 76 75 74 227 211
6 213 274 239 246 247 167
6 214 123 282 283 259 281
5 216 209 85 106 217
5 218 89 88 108 219
5 220 109 90 226 221
5 222 322 323 320 223
5 224 298 299 264 225
5 226 90 91 211 227
5 228 288 289 229 268
6 230 151 74 75 141 231
7 232 229 289 207 138 233 265
5 234 278 279 86 235
7 236 212 270 302 252 290 291
5 253 248 284 308 309
6 240 151 230 215 241 258
5 242 220 221 150 243
6 244 277 312 313 307 269
6 246 212 236 72 202 247
5 248 253 300 301 249
7 275 304 294 295 271 239 274
7 252 302 303 238 319 314 315
4 254 218 219 255
5 256 280 281 259 257
6 258 241 237 257 259 283
4 260 107 87 261
5 318 319 238 286 287
7 264 299 296 297 306 232 265
5 266 223 320 321 267
6 268 229 232 306 307 313
5 270 212 246 239 271
4 272 316 317 273
6 274 213 288 228 251 275
6 276 158 250 294 304 305
5 278 260 261 206 279
6 280 89 218 254 214 281
6 282 243 150 240 258 283
6 284 293 310 311 285 308
5 286 250 158 159 287
5 288 213 167 207 289
7 290 285 311 256 257 237 291
5 292 108 88 310 293
6 294 250 286 238 303 295
6 296 86 279 206 245 297
6 298 205 235 86 296 299
4 300 262 263 301
5 302 270 271 295 303
6 304 275 251 312 277 305
7 306 297 245 267 321 269 307
6 308 285 290 252 315 309
6 310 88 89 280 256 311
5 312 251 228 268 313
6 314 262 300 253 309 315
5 316 159 158 276 317
5 318 263 262 314 319
6 320 323 166 244 269 321
5 322 272 273 166 323
CELL_TYPES 163
7
7
7
7
7
7
7
7
7
7
7
7
7
7
7
7
7
7
7
7
7
7
7
7
7
7
7
7
7
7
7
7
7
7
7
7
7
7
7
7
7
7
7
7
7
7
7
7
7
7
7
7
7
7
7
7
7
7
7
7
7
7
7
7
7
7
7
7
7
7
7
7
7
7
7
7
7
7
7
7
7
7
7
7
7
7
7
7
7
7
7
7
7
7
7
7
7
7
7
7
7
7
7
7
7
7
7
7
7
7
7
7
7
7
7
7
7
7
7
7
7
7
7
7
7
7
7
7
7
7
7
7
7
7
7
7
7
7
7
7
7
7
7
7
7
7
7
7
7
7
7
7
7
7
7
7
7
7
7
7
7
7
7
CELL_DATA 163
SCALARS cell_division_count float
LOOKUP_TABLE default
1
0
1
0
0
0
1
0
0
1
1
1
1
1
1
1
0
1
1
1
1
1
1
0
1
1
1
1
1
1
1
1
2
4
3
1
1
0
0
1
1
0
0
0
1
2
3
0
1
0
0
1
1
1
1
1
0
0
3
0
1
2
3
1
1
1
1
1
1
1
2
2
1
1
1
1
2
1
1
1
2
1
1
2
5
1
1
1
1
1
1
1
1
1
1
1
1
1
1
1
1
1
2
3
5
2
1
3
5
2
2
2
4
3
2
4
2
3
5
5
6
3
3
6
3
4
6
7
3
5
4
4
5
5
6
6
5
4
5
6
5
5
5
6
4
4
5
3
6
5
3
4
6
6
6
6
6
6
7
4
5
6
4
SCALARS cell_time float
LOOKUP_TABLE default
671
2.22229e+13
691
4.48239e+13
2.67348e+11
1.25633e+10
701
2.68223e+09
9.19769e+11
691
691
681
651
701
621
661
1.22668e+06
701
671
701
701
601
641
24483.4
701
701
701
701
701
591
651
591
551
291
441
541
681
1.00108e+18
2.94533e+15
651
641
105783
2045.76
757.338
631
531
331
748.006
641
3399.01
1016.18
621
661
671
681
651
1.12104e+13
21866.3
121
2737.96
651
571
391
701
701
701
701
701
701
701
581
461
701
691
691
691
521
681
681
681
531
671
671
531
201
671
661
661
651
651
651
651
651
641
641
641
631
621
621
601
591
591
581
451
271
551
541
391
171
531
531
531
1
111
521
141
461
451
181
141
31
411
391
21
391
111
121
21
331
181
311
311
11
121
11
41
241
21
211
101
181
181
171
31
161
141
141
121
121
121
111
111
111
101
41
31
31
21
21
21
11
11
1
SCALARS cell_area float
LOOKUP_TABLE default
3.24511
3.30218
3.2928
3.35954
3.35283
3.34254
3.32091
3.37769
3.35026
3.28073
3.33583
3.28508
3.3713
3.31271
3.30605
3.33175
3.4023
3.28068
3.33064
3.36839
3.37713
3.33587
3.34015
3.37056
3.35038
3.35844
3.41155
3.37847
3.37734
3.32451
3.25196
3.29914
3.33695
3.30535
3.37152
3.25248
3.34953
3.2593
3.26832
3.25569
3.24718
3.28801
3.27027
3.29013
3.22874
3.30263
3.26796
3.27239
3.26903
3.25901
3.27826
3.28329
3.22473
3.26507
3.25181
3.24819
3.21577
3.22416
3.26869
3.20511
3.25496
3.31535
3.28401
3.27941
3.33433
3.29054
3.3639
3.33098
3.28277
3.34756
3.4059
3.3136
3.34321
3.28615
3.243
3.27454
3.33056
3.34336
3.23826
3.22974
3.26459
3.2619
3.31593
3.31293
3.31545
3.2306
3.29946
3.26055
3.35125
3.28857
3.23188
3.20921
3.2242
3.30487
3.26115
3.25773
3.26747
3.32394
3.27285
3.29674
3.29228
3.27105
3.35452
3.24456
3.26091
3.25462
3.31769
3.32337
3.28234
3.28423
3.26438
3.28085
3.30864
3.27164
3.25167
3.26353
3.3326
3.36405
3.27389
3.35783
3.23668
3.32684
3.28975
3.27959
3.34266
3.25749
3.32912
3.32885
3.21743
3.25885
3.316
3.21858
3.29369
3.33191
3.23312
3.30146
3.28967
3.25581
3.29465
3.3057
3.26783
3.26141
3.30639
3.27722
3.29666
3.29645
3.34848
3.27453
3.30837
3.28863
3.28591
3.22255
3.2815
3.29617
3.31911
3.30558
3.27389
3.24736
3.27269
3.2914
3.27764
3.24471
128
SCALARS cell_perimeter float
LOOKUP_TABLE default
6.91932
6.89147
7.04074
7.07098
7.03874
6.86976
7.04983
7.33858
6.87371
6.99666
7.34488
6.97103
6.84779
7.11429
6.97017
6.75114
7.11012
6.95134
6.99717
7.1842
6.90369
7.07089
7.09569
7.30271
7.37256
6.86692
7.97407
6.90484
6.8162
6.96619
6.96346
6.87322
8.09987
7.00178
6.91667
7.11089
7.48299
7.41744
7.687
7.51005
8.08622
8.35664
7.91309
7.4978
7.32101
8.25353
7.24413
7.22421
7.73737
7.42182
7.73869
8.02467
7.65287
7.93417
7.59259
7.1643
7.35524
7.32884
7.19308
7.28657
7.57829
8.01513
7.57669
7.03592
6.97066
7.12926
6.95838
6.97371
7.06465
6.87342
7.90693
6.9584
7.00504
7.14831
7.27033
7.15158
7.49765
7.10151
6.94473
7.77577
7.18141
6.77963
7.01193
8.01627
6.96879
7.84308
6.80374
7.82318
6.95592
6.96683
7.67493
7.2923
7.52523
6.98425
7.77608
7.68008
7.19411
6.84254
7.91444
7.03358
7.05269
6.84741
7.09121
7.38519
6.9271
6.96198
6.80953
7.1965
7.02265
7.9005
7.17406
7.74347
7.19364
7.12972
7.12391
6.94534
6.94833
7.63231
7.2212
7.30369
6.96648
6.91837
7.89207
7.02431
7.28006
7.14348
7.29965
7.55247
7.28122
6.92361
6.98564
7.29209
7.68152
7.22586
7.0971
7.04829
6.93422
7.38322
6.93353
7.06733
7.17521
6.78205
7.2322
7.22401
7.48464
7.12217
6.94869
7.25058
7.03469
6.94084
6.94565
7.3053
6.982
6.92336
6.72523
6.84633
7.14277
6.88772
6.95048
7.32871
7.54133
7.1827
103
SCALARS cell_frequency_modifier float
LOOKUP_TABLE default
4.82588e+16
9.62348e+12
2.90753e+12
4.76772e+12
3.74517e+11
1.92343e+10
1.2019e+07
1.01074e+09
6.07994e+11
1.92425e+11
5.20421e+08
4.30395e+08
99983.5
4.06141e+06
4.04707e+09
6.46378e+10
1.21403e+08
1.62446e+06
37986.6
298.939
86711.5
1.35786e+06
3.04651e+07
1.02015e+06
23878.4
1175.35
93.3248
379.643
13793
38091.2
1.28207e+08
2753.04
115.685
32.8728
4.27124
133053
4097.76
1.93659e+18
1.66702e+17
3.37609e+15
4.77231e+11
2.99277e+08
5.05651e+08
123372
1.09116e+06
32.7953
239.91
1723.19
63126.5
4.52537e+08
8.76533e+07
5.22775e+08
2.94633e+15
2.08943e+17
6.30707e+18
10000
3.80112e+14
2.85383e+08
89.9363
3.63453e+07
1.38266e+14
8.6636
7.89583
4.05663e+09
1.60795e+07
3.84999e+06
264.621
4110.2
59531.8
853.354
38.2175
58.6968
1819.06
1.14711e+11
1.05017e+12
1.03903e+08
29.5554
2.39451e+06
1.19754e+07
3.2496e+18
103.202
8.05227e+16
6471.56
44.8893
0.519796
1.31843e+17
4.88619e+09
8.61789e+15
4160.99
94675
6.19815e+16
10000
1.56793e+13
3.53521e+06
5.63949e+12
1.85129e+06
99943.7
2.01025e+08
1.98766e+10
777789
471960
82655.3
37.4715
497.646
121.014
77615.9
429.188
5.92934
7.16754
187.478
103.859
82.4674
0.622006
137.701
19134.9
1261.75
140.109
16.1514
7.58441
0.902316
100.155
17.3229
16.4373
3.18621
6.7792
135.247
0.825303
0.45745
127.57
281.876
4.12882
100.559
1.08694
3.26349
103.968
3.93508
4.13226
132.092
4.06703
0.610271
128.89
175.207
8.93528
2.85343
0.982317
26.1321
0.90251
3.13004
0.578785
2.46515
6.73444
164.872
2.39303
1.15377
0.95802
0.761212
5.01593
330.42
5.22029
1.15744
3.40412
107.681
1
SCALARS cell_area_modifier float
LOOKUP_TABLE default
100
0.669421
0.84375
0.325956
0.339623
0.379391
0.480712
0.298893
0.350649
1.76087
0.398034
1.22727
0.310345
0.554795
0.595588
0.418605
0.293478
1.86207
0.429708
0.316406
0.304511
0.393204
0.383886
0.313346
0.346895
0.329268
0.288256
0.296161
0.301676
0.460227
100
0.713656
0.388489
0.63035
0.3074
100
0.354486
100
100
100
100
1.10204
13.5
0.94186
100
0.65587
100
6
23.1429
100
2.25
1.38462
100
100
100
100
100
100
81
100
100
0.527687
1.32787
2.1039
0.402985
0.915254
0.322709
0.424084
1.44643
0.362416
0.290844
0.536424
0.370709
1.14085
100
2.84211
0.435484
0.366516
100
100
100
100
0.511041
0.545455
0.519231
100
0.698276
100
0.34322
1.06579
100
100
100
0.642857
100
100
100
0.466859
4.37838
0.72973
0.86631
9.52941
0.3361
100
100
100
0.495413
0.473684
1.51402
1.27559
100
1.6701
0.56446
7.36364
100
100
0.40806
0.319527
3.44681
0.332649
100
0.453782
0.97006
1.97561
0.375
100
0.441417
0.447514
100
100
0.503106
100
0.822335
0.413265
100
0.683544
1
100
0.80198
0.606742
100
100
0.584838
2.6129
0.746544
0.764151
0.358407
3.11538
0.574468
1.03185
1.18248
100
1.58824
0.782609
0.487952
0.618321
3.85714
100
5.0625
0.89011
2.41791
100
1
SCALARS cell_Gaussian_modifier float
LOOKUP_TABLE default
4.82588e+14
1.43758e+13
3.44597e+12
1.46269e+13
1.10274e+12
5.06977e+10
2.50026e+07
3.38162e+09
1.73391e+12
1.09279e+11
1.30748e+09
3.50693e+08
322169
7.32057e+06
6.79508e+09
1.54413e+11
4.13668e+08
872396
88400.8
944.794
284756
3.45333e+06
7.93596e+07
3.25567e+06
68834.6
3569.57
323.757
1281.88
45721.3
82766
1.28207e+06
3857.65
297.782
52.1501
13.8947
1330.53
11559.7
1.93659e+16
1.66702e+15
3.37609e+13
4.77231e+09
2.71566e+08
3.74556e+07
130988
10911.6
50.0027
2.3991
287.198
2727.69
4.52537e+06
3.8957e+07
3.7756e+08
2.94633e+13
2.08943e+15
6.30707e+16
100
3.80112e+12
2.85383e+06
1.11033
363453
1.38266e+12
16.4181
5.94625
1.92815e+09
3.9901e+07
4.20647e+06
819.998
9691.95
41157.8
2354.63
131.402
109.422
4906.98
1.00549e+11
1.05017e+10
3.65585e+07
67.8679
6.53316e+06
119754
3.2496e+16
1.03202
8.05227e+14
12663.5
82.297
1.00109
1.31843e+15
6.9975e+09
8.61789e+13
12123.4
88830.8
6.19815e+14
100
1.56793e+11
5.49922e+06
5.63949e+10
18512.9
999.437
4.30591e+08
4.53972e+09
1.06586e+06
544794
8673.7
111.489
4.97646
1.21014
776.159
866.325
12.5175
4.73412
146.974
1.03859
49.3786
1.10195
18.7001
191.349
12.6175
343.353
50.5478
2.20042
2.71252
1.00155
38.1746
16.9447
1.61277
18.0779
1.35247
1.86967
1.0222
1.2757
2.81876
8.20667
1.00559
1.32177
7.89685
1.03968
5.75688
4.13226
1.32092
5.07123
1.00582
1.2889
1.75207
15.2782
1.09205
1.31582
34.1976
2.51811
1.0047
1.00751
2.38906
5.69518
1.64872
1.50672
1.47427
1.96335
1.2311
1.30043
3.3042
1.03117
1.30033
1.40788
1.07681
1
