# vtk DataFile Version 2.0
2D-vertex
ASCII
DATASET UNSTRUCTURED_GRID
POINTS 1456 float
0.710709 -5.40324 0
3.16171 -5.14615 0
3.531 -4.19163 0
2.48538 -3.14529 0
0.21139 -3.04276 0
-0.479362 -4.54194 0
4.06188 -4.14667 0
4.61779 -3.28002 0
3.65592 -1.78786 0
2.61359 -2.12395 0
1.41456 -0.890304 0
-0.284015 -0.445261 0
-1.02453 -1.73312 0
-1.18171 -1.77493 0
-1.66866 -3.4479 0
-1.14392 -4.3216 0
5.19202 -3.42436 0
5.9882 -2.524 0
4.12176 -1.03264 0
3.85135 -1.10568 0
2.95597 -0.166661 0
1.8903 -0.275549 0
1.16516 3.33823 0
0.315783 3.29703 0
-0.470941 1.40237 0
-1.66365 0.468893 0
-1.54667 -1.43105 0
-2.83484 -1.74463 0
-3.32791 -2.78183 0
-3.01417 -3.48649 0
7.05657 -2.48743 0
7.66407 -1.74435 0
7.45408 -0.437965 0
5.21474 0.674908 0
5.67061 1.26622 0
3.29499 2.54511 0
2.50116 3.81794 0
1.61645 3.95614 0
0.639298 7.14512 0
-0.937589 7.15762 0
-0.571291 4.09 0
-2.05176 3.12081 0
-3.07785 1.55505 0
-4.03642 1.57348 0
-4.75018 0.155272 0
-6.15535 -0.17457 0
-6.42387 -1.23885 0
-4.88247 -2.57208 0
7.86461 0.20649 0
7.49723 1.23193 0
6.73718 1.63013 0
5.94365 3.67444 0
3.5687 4.8078 0
3.47593 5.68694 0
1.99683 7.28881 0
2.51714 8.0045 0
-1.91508 8.53352 0
-1.79935 7.59432 0
-3.02774 6.2242 0
-2.66604 4.07171 0
-4.29911 4.35292 0
-5.66467 3.01626 0
-7.56077 1.50138 0
-7.40986 0.965859 0
8.40197 1.67024 0
8.40189 1.67274 0
6.85667 3.68028 0
7.25367 4.89957 0
5.94177 6.13392 0
6.1302 6.82874 0
5.29113 7.83033 0
4.98791 8.35906 0
-2.63328 10.8445 0
-2.90545 10.469 0
-6.03584 7.47577 0
-5.36075 6.70192 0
-6.07154 5.31215 0
-5.9864 5.14858 0
-8.55066 2.00296 0
-8.39373 1.64593 0
9.91939 2.03095 0
10.2051 3.00242 0
9.37404 3.9598 0
10.5186 4.4239 0
10.1572 5.94308 0
10.3188 6.66406 0
9.30895 11.2701 0
10.2101 13.3822 0
-9.54976 12.4783 0
-9.54961 12.4758 0
-10.0008 6.59437 0
-9.702 6.07319 0
-10.0395 5.43462 0
-9.28505 4.34538 0
-10.0804 3.07792 0
-9.60548 2.09659 0
4.12962 -6.9725 0
5.31992 -6.38515 0
6.14733 -5.95003 0
8.44806 -4.27136 0
9.68949 -2.78688 0
10.935 -0.398092 0
11.0255 -0.216486 0
11.6857 0.891516 0
12.3883 2.85571 0
12.5643 3.65833 0
12.5744 7.19527 0
12.773 13.9445 0
-13.1379 12.9413 0
-12.5806 6.53734 0
-12.4869 5.25003 0
-12.0844 2.69882 0
-11.1828 0.767606 0
-10.302 -0.321862 0
-9.67856 -1.03897 0
-8.73313 -2.35536 0
-6.74398 -4.4468 0
-4.62541 -5.79264 0
-2.49042 -6.72644 0
0.539795 -7.45026 0
12.3611 8.68226 0
8.26953 8.69522 0
-12.8582 9.02866 0
-9.96078 9.85651 0
-0.210773 1.07018 0
1.08149 1.20425 0
-1.80007 3.09548 0
-1.00318 1.38086 0
4.54529 2.78451 0
4.91856 3.71882 0
0.305268 8.76301 0
0.106571 7.6236 0
-1.10784 5.43488 0
-2.28118 5.11422 0
5.94261 3.67671 0
5.03773 5.62863 0
4.0464 6.09839 0
4.01382 7.47884 0
1.95252 9.04548 0
1.95062 9.04386 0
-2.37558 8.73198 0
-3.93337 6.90591 0
-3.48113 6.22941 0
-4.43398 4.93874 0
1.55194 -1.5271 0
0.131411 -2.56687 0
6.62433 -0.222601 0
5.58358 -1.80122 0
5.21268 0.676313 0
3.16719 1.42177 0
-8.87098 8.24756 0
-5.85646 8.17833 0
3.16469 1.42175 0
1.71525 2.05498 0
-9.29444 4.2799 0
-7.87738 3.6886 0
-0.511271 -4.55937 0
-0.845589 -7.25082 0
14.6253 28.6737 0
17.651 27.6545 0
1.51413 -5.03445 0
1.57881 -3.58007 0
2.4711 6.03728 0
1.32694 4.98458 0
8.11406 8.22216 0
5.2912 7.83285 0
8.02291 19.0752 0
-0.236301 10.7454 0
-2.4452 -3.72953 0
-3.07465 -6.49981 0
-4.15851 -0.753709 0
-5.02074 -1.95259 0
-5.28649 -5.42776 0
-4.28033 -2.9547 0
0.396589 5.42845 0
-0.500397 4.97591 0
9.34835 3.81092 0
7.79138 2.95989 0
5.82048 -3.06243 0
7.60302 -4.9948 0
2.09902 -7.47185 0
2.07089 -5.44891 0
-5.9731 -1.85399 0
-7.51959 -3.76806 0
-5.24405 1.92433 0
-6.54476 0.655418 0
7.71624 -0.295596 0
10.2321 -1.87993 0
-12.3498 4.08826 0
-9.30859 4.30557 0
12.7562 5.71581 0
10.6781 5.4467 0
-2.63109 0.627064 0
-3.50814 -0.749404 0
-9.23982 -1.60735 0
-6.52064 0.0883775 0
-3.48915 3.86197 0
-4.2076 1.86394 0
-6.72193 3.89013 0
-6.28706 3.0952 0
8.20972 5.10306 0
8.39763 5.59594 0
-0.994695 10.5693 0
-0.72676 9.40392 0
12.3652 8.69146 0
9.654 9.87325 0
9.43116 12.1502 0
1.60715 9.64518 0
7.73727 6.84819 0
8.91529 7.59883 0
-7.21416 5.39722 0
-7.56287 6.14767 0
-2.43283 12.9011 0
0.480841 12.0887 0
-9.89459 10.3557 0
-4.0995 10.2852 0
8.91385 7.60089 0
12.4006 8.22397 0
-10.6692 11.509 0
-13.2055 11.9624 0
-12.6358 7.52853 0
-9.13748 7.79849 0
12.0771 16.6661 0
9.55116 14.8394 0
7.92039 9.13562 0
5.78779 9.25088 0
-9.13753 7.79597 0
-7.25759 7.12154 0
1.87406 12.6449 0
3.64957 11.0122 0
-4.37744 8.66917 0
-3.61597 8.03843 0
4.3442 10.7801 0
3.49693 9.18707 0
12.6387 10.3906 0
9.83872 10.4183 0
-3.04566 12.4583 0
-4.52334 11.2512 0
-13.5408 24.3539 0
-0.237381 13.7441 0
-6.44349 8.71378 0
-4.38602 10.4778 0
-12.7145 8.25283 0
-9.32146 8.83572 0
5.23605 14.9272 0
7.52274 12.9273 0
-1.40185 12.4942 0
-0.832803 10.7725 0
-10.1457 15.7523 0
-13.4204 14.7192 0
18.2431 33.0789 0
1.76384 13.7848 0
-3.05888 15.2373 0
-10.0877 16.1697 0
-10.6306 10.834 0
-13.0817 10.0699 0
-6.50058 12.5198 0
-5.93888 11.4397 0
-6.31865 9.48246 0
-7.10418 10.4026 0
12.8003 12.1122 0
10.188 12.7375 0
-10.9772 17.2104 0
-14.0231 17.066 0
5.54293 10.3634 0
4.36196 10.7182 0
9.52817 14.0322 0
7.55583 13.4911 0
3.43797 12.2015 0
5.95153 14.2427 0
-2.26076 14.4696 0
-0.841197 14.7852 0
13.3643 18.6259 0
10.5265 19.8764 0
-0.166068 13.7303 0
0.715286 14.4299 0
11.275 21.5951 0
3.30443 14.366 0
12.703 11.2339 0
9.5824 11.6418 0
-8.34584 11.9948 0
-8.36855 11.1174 0
-9.21547 9.18528 0
-7.10718 10.0166 0
-9.75541 15.3969 0
-6.06636 14.3929 0
20.3888 37.0003 0
22.5281 37.063 0
1.29723 12.0043 0
2.14729 10.4623 0
-3.98819 14.1327 0
-3.8481 12.8359 0
-13.2505 13.9897 0
-9.95711 14.6944 0
-0.660859 16.4208 0
-0.674668 16.4104 0
7.15557 11.2755 0
6.6962 12.192 0
8.13992 9.64509 0
7.03751 11.0122 0
-10.9113 16.6702 0
-13.65 15.4753 0
-2.84529 15.2409 0
-1.86137 16.7527 0
1.00523 15.6322 0
2.49981 15.6448 0
5.67331 12.3372 0
5.34914 13.0081 0
-7.27873 15.6872 0
-7.0279 16.2147 0
-8.95852 13.2641 0
-6.2821 13.4928 0
3.28656 14.318 0
4.12188 13.0578 0
-10.3221 19.2177 0
-3.93124 16.4595 0
13.8577 19.528 0
11.377 20.7393 0
-16.6081 23.2348 0
-14.0378 23.4946 0
7.57852 15.2763 0
6.80537 14.3404 0
12.064 16.7576 0
8.135 18.1355 0
3.183 17.0063 0
4.889 17.6199 0
0.553267 18.4813 0
2.57705 17.4606 0
-1.13598 24.7784 0
-3.74237 23.216 0
-3.23055 21.5341 0
-4.44448 18.4239 0
-6.10826 13.2554 0
-4.04452 12.7147 0
-9.53034 18.1551 0
-8.02184 17.1172 0
6.78164 22.4115 0
6.16171 19.4429 0
-13.1457 13.2937 0
-9.2776 13.7366 0
-9.21807 13.8897 0
-7.01928 14.9097 0
-0.659513 18.7529 0
-0.405955 18.4187 0
14.1695 28.0572 0
1.70062 22.1398 0
16.5788 24.442 0
14.3747 25.1008 0
-15.0052 18.857 0
-12.1783 19.7274 0
-5.28235 14.7703 0
-5.12798 16.1273 0
6.9836 16.1732 0
5.87404 16.1655 0
0.714392 16.0993 0
1.31679 17.1921 0
9.7327 14.4956 0
12.6118 14.9286 0
12.061 16.724 0
7.56894 15.6194 0
-11.8433 20.743 0
-4.43008 18.897 0
-2.41662 17.8206 0
-3.54953 17.669 0
3.02052 22.4255 0
3.62009 21.7104 0
-5.66898 16.582 0
-5.56861 17.822 0
3.20141 16.3779 0
5.24082 15.5141 0
-2.09377 21.4545 0
-0.579926 22.9343 0
1.92552 27.9814 0
11.8691 28.5252 0
-19.2701 38.9399 0
-20.8412 38.3394 0
-17.9125 50.7097 0
-2.71693 24.276 0
-14.1368 17.2683 0
-11.9596 19.3869 0
-1.95894 18.6664 0
-3.49439 19.6032 0
-7.23803 19.3491 0
-5.7804 19.765 0
12.3728 24.4508 0
11.2096 27.6486 0
4.10175 19.9352 0
5.62255 20.2025 0
10.486 20.0323 0
7.53984 21.1488 0
12.3358 17.1616 0
10.3152 19.63 0
-13.5926 22.732 0
-3.83031 20.8628 0
15.6339 22.7069 0
13.9063 24.3861 0
1.63806 19.5156 0
2.79249 18.7513 0
-15.7085 20.2656 0
-13.5989 21.6599 0
-1.9833 26.4255 0
3.52689 23.7244 0
-0.0597659 20.2718 0
1.3102 20.6088 0
-8.0126 17.2876 0
-6.68069 18.2869 0
7.23624 17.3669 0
5.72637 18.2365 0
-1.60482 20.6642 0
-2.36066 19.4056 0
12.057 16.7359 0
7.39714 16.8883 0
-2.79736 23.8304 0
-1.55774 22.7048 0
-5.72866 20.4561 0
-4.77129 21.1303 0
-4.59136 23.3655 0
-5.2115 22.4714 0
-14.0292 17.0741 0
-10.2248 18.8007 0
4.69588 23.7195 0
5.28869 22.4735 0
-0.328945 29.1017 0
16.935 58.2932 0
-8.02595 20.2448 0
-7.7646 21.3988 0
6.04348 65.4169 0
6.00573 67.1543 0
-10.2632 26.2749 0
-8.33089 28.8136 0
8.64052 19.4878 0
7.39694 20.8183 0
14.3335 20.3717 0
11.697 21.8749 0
4.95242 21.8635 0
5.80938 20.631 0
1.70114 20.2709 0
3.30797 20.7731 0
2.95006 24.3612 0
4.98963 28.0351 0
3.88094 19.1269 0
5.00432 18.0304 0
1.28106 22.5682 0
1.61651 23.9428 0
12.1101 16.8567 0
8.61638 19.3694 0
-7.11075 34.4841 0
-4.85196 30.7852 0
-14.1069 25.7783 0
-16.9695 25.1756 0
-0.471765 20.7722 0
0.0522325 22.2668 0
-7.21093 21.5898 0
-6.90991 22.4773 0
-9.54223 18.519 0
-7.2383 19.3466 0
8.10966 24.6488 0
8.98004 22.776 0
-16.3715 22.0327 0
-13.8494 22.3343 0
-7.35182 23.156 0
-7.3672 24.7707 0
4.96905 32.224 0
8.62484 30.4569 0
-14.5692 27.6047 0
-10.0717 27.3152 0
7.99905 25.2454 0
5.41282 26.8339 0
2.23185 27.6852 0
1.14486 25.7914 0
-4.86343 25.1488 0
-4.70453 25.2639 0
20.1884 35.9288 0
22.1005 35.0646 0
-0.302542 24.0287 0
1.0003 24.4765 0
-9.37036 22.1291 0
-9.52415 22.5166 0
6.81332 36.776 0
12.7842 45.4487 0
-3.36768 25.0411 0
-2.8353 26.2642 0
14.158 25.6444 0
11.8062 26.2371 0
-19.3464 43.1844 0
-21.381 42.7845 0
-18.0548 41.0727 0
-8.61375 33.6683 0
9.23039 22.1366 0
8.75655 21.2733 0
-10.5675 24.4153 0
-8.98984 23.2358 0
12.1057 24.0506 0
9.70757 24.0823 0
-1.8545 36.2089 0
-0.546225 30.7288 0
-9.65113 20.0934 0
-10.1745 21.0173 0
17.0248 25.7348 0
14.6874 26.2948 0
14.7608 21.0566 0
12.4545 22.839 0
16.9757 31.3276 0
13.2532 32.2432 0
-1.89548 29.069 0
-1.57426 27.4449 0
-16.3329 32.3421 0
-18.3881 31.3034 0
3.09474 25.4581 0
1.98737 26.1992 0
7.73049 29.5787 0
6.73396 26.5062 0
5.28573 24.2997 0
4.40655 25.5045 0
-6.26518 28.1533 0
-5.69706 28.8814 0
7.2861 23.0888 0
7.0933 23.6925 0
5.92988 29.7374 0
6.59601 32.2913 0
-14.0721 25.8883 0
-10.9323 26.0187 0
18.5187 32.3974 0
20.7405 31.7149 0
-8.86645 25.5911 0
-6.09148 27.5248 0
-14.8026 34.8426 0
-10.8651 32.1278 0
3.44562 31.6197 0
3.03761 31.907 0
-16.79 24.2849 0
-13.739 24.6683 0
-17.2309 26.4025 0
-14.8988 26.8215 0
0.0553832 39.6819 0
[...]
CELL_DATA 729
SCALARS cell_division_count float
LOOKUP_TABLE default
1
0
1
0
0
0
1
0
0
1
1
1
1
1
1
1
0
1
1
1
1
1
1
0
1
1
1
1
1
1
1
1
2
4
3
1
1
0
0
1
1
0
0
0
1
2
3
0
1
0
0
1
1
1
1
1
0
0
3
0
1
2
3
1
1
1
1
1
1
1
2
2
1
1
1
1
2
1
1
1
3
1
1
2
9
1
1
1
1
1
1
1
1
1
1
1
1
1
1
1
1
1
2
3
5
2
1
3
5
2
2
2
5
3
2
4
2
3
5
5
6
3
3
6
3
4
6
9
3
5
4
4
8
5
6
6
5
4
5
14
5
5
5
7
5
4
6
4
10
5
3
4
6
6
6
7
6
6
11
7
8
7
6
7
8
18
11
6
8
9
4
7
8
13
6
7
7
8
8
3
6
12
10
11
9
7
11
13
9
16
8
11
10
11
9
9
5
14
6
10
8
13
10
10
8
11
6
10
11
14
8
11
13
11
9
12
9
8
9
11
13
9
11
6
16
13
11
12
11
13
8
13
13
12
15
14
10
8
12
13
14
11
12
13
17
9
14
15
15
12
7
9
14
15
11
14
14
14
13
13
12
12
8
12
16
14
8
9
17
14
15
17
14
14
13
11
14
14
14
14
14
15
14
8
15
9
9
14
13
13
14
12
12
10
12
12
14
15
7
13
13
15
11
14
14
14
8
13
15
12
16
15
15
15
13
14
15
16
12
15
19
10
11
14
16
14
16
17
14
15
12
7
13
13
19
14
15
13
16
16
13
16
15
12
15
14
17
13
10
9
14
18
13
15
14
15
11
17
15
15
15
15
14
13
13
15
14
20
16
15
17
15
15
15
17
8
16
15
15
16
13
14
10
19
16
17
12
16
18
14
18
16
15
9
16
15
14
14
21
16
19
14
14
15
22
18
14
17
8
11
11
14
15
12
17
15
15
16
17
15
16
15
16
16
16
20
16
15
15
17
20
16
20
17
17
18
15
19
14
16
20
11
11
13
13
16
17
18
20
19
17
17
17
17
17
15
17
16
17
16
19
12
11
16
17
17
20
13
16
19
15
16
15
18
20
17
20
15
19
21
17
18
18
20
20
14
14
17
16
16
16
17
19
16
18
15
17
17
17
13
17
18
22
17
18
17
20
22
17
16
21
20
20
19
20
16
11
22
17
18
17
15
19
17
16
18
20
17
17
18
12
19
13
20
17
18
17
19
18
21
18
17
13
17
14
18
22
19
17
19
23
21
19
21
16
17
21
20
12
16
14
16
20
10
19
16
19
17
21
20
17
20
19
18
21
20
18
21
18
17
12
14
16
20
20
18
20
21
21
18
20
19
18
17
17
16
18
19
19
21
20
11
19
19
14
15
22
20
23
16
19
20
21
14
19
21
20
22
19
18
20
19
21
21
17
13
19
20
21
17
21
18
21
21
20
21
21
21
13
18
20
13
20
18
21
20
20
17
13
18
23
21
21
21
21
19
20
17
19
21
22
22
18
22
16
18
18
21
21
21
21
14
20
19
21
19
20
17
21
14
20
21
20
21
20
14
20
20
20
20
21
18
22
15
20
22
18
21
21
20
18
21
18
18
18
20
18
20
22
21
19
15
23
22
21
23
22
20
18
19
14
21
20
22
19
22
23
20
21
SCALARS cell_time float
LOOKUP_TABLE default
2811
2.22229e+13
2831
4.48239e+13
2.67348e+11
1.25633e+10
2841
2.68224e+09
9.19769e+11
2831
2831
2821
2791
2841
2761
2801
1.22882e+06
2841
2811
2841
2841
2741
2781
26623.4
2841
2841
2841
2841
2841
2731
2791
2731
2691
2431
2581
2681
2821
1.00108e+18
2.94533e+15
2791
2781
107923
4185.76
2897.34
2771
2671
2471
2888.01
2781
5539.01
3156.18
2761
2801
2811
2821
2791
1.12104e+13
24006.3
2261
4877.96
2791
2711
2531
2841
2841
2841
2841
2841
2841
2841
2721
2601
2841
2831
2831
2831
2661
2821
2821
2821
1961
2811
2811
2671
1591
2811
2801
2801
2791
2791
2791
2791
2791
2781
2781
2781
2771
2761
2761
2741
2731
2731
2721
2591
2411
2691
2681
2531
2311
2671
2671
2671
1961
2251
2661
2281
2601
2591
2321
2281
2171
2551
2531
2161
2531
2251
2261
1951
2471
2321
2451
2451
1231
2261
2151
2181
2381
2161
2351
1181
2321
2321
2311
2011
1441
2281
2051
2031
1681
2261
2251
2251
2251
2241
2181
1981
2171
2161
1521
1591
1511
1971
1561
1901
1971
501
1651
2051
2041
1591
2031
2011
2011
861
1371
1841
1981
1701
1971
1961
1691
1381
1831
1591
1911
1901
1531
1321
1011
231
1651
1701
1821
1411
1591
1391
1791
1181
1771
1771
1171
1191
1741
1711
1701
1701
1691
1681
1661
1201
1651
1641
921
1631
851
1081
1591
1371
1591
1591
1311
1591
1581
1561
741
741
1531
1531
1521
1301
1511
1061
1051
1021
1021
1221
1451
671
1431
1421
591
1421
1041
151
261
1391
1181
1031
501
1381
1071
1161
741
1061
581
1061
1061
1061
1131
1301
1121
1121
751
1081
701
801
1231
1231
521
1221
651
281
1201
1001
1191
511
1191
1181
1181
531
1181
701
1181
1171
1041
981
1161
1041
1041
1131
681
1121
1111
1101
1081
1081
701
931
1071
1071
1061
1061
671
1061
1061
1061
871
1051
781
1041
501
631
1041
781
1041
861
1031
751
1021
1021
221
291
1011
841
511
1001
381
371
831
501
351
971
171
961
311
941
931
921
731
461
911
681
901
891
711
891
531
871
871
711
871
241
861
661
861
601
221
511
671
841
501
691
831
561
471
451
801
201
661
781
321
781
651
781
451
751
751
751
751
741
741
741
741
221
621
151
261
731
271
721
231
471
711
711
701
701
701
371
161
311
121
691
91
691
61
461
681
531
671
381
671
671
671
521
411
661
531
661
531
651
651
651
411
511
641
21
291
631
631
481
141
621
71
351
361
31
601
191
591
591
81
581
581
441
561
461
281
431
91
231
371
121
531
341
531
531
531
301
521
371
221
521
511
511
511
351
251
221
511
401
501
501
501
101
141
351
31
61
91
81
371
21
351
151
61
221
301
181
471
261
461
311
331
461
161
451
451
351
241
441
271
431
11
431
431
141
81
1
411
411
81
201
261
191
171
381
381
61
371
251
371
211
251
371
371
31
81
371
361
361
361
251
151
31
351
351
351
21
351
71
111
351
141
341
81
101
31
331
321
211
1
191
311
101
311
311
91
131
301
301
301
301
81
291
91
291
291
281
121
161
281
161
281
271
161
151
71
101
151
261
261
261
261
261
161
41
91
31
131
251
1
251
241
91
241
231
231
31
231
101
81
221
221
221
21
31
121
51
31
111
211
211
91
91
201
121
201
31
191
61
81
11
191
181
181
171
171
171
61
171
161
161
161
41
161
61
161
31
151
41
151
151
151
151
1
141
141
141
141
41
31
131
131
21
131
131
21
121
121
121
121
31
111
111
111
101
101
101
101
101
101
91
91
91
91
91
91
91
91
91
81
81
81
81
81
81
81
81
81
71
71
71
61
61
61
61
61
61
61
51
41
41
41
41
31
31
31
31
31
31
31
31
31
31
31
31
31
21
21
21
21
21
21
11
11
1
1
1
1
SCALARS cell_area float
LOOKUP_TABLE default
3.24159
3.29961
3.29286
3.35561
3.35087
3.343
3.32585
3.37384
3.3482
3.28115
3.33595
3.28152
3.38546
3.3183
3.30524
3.32935
3.39787
3.28788
3.34532
3.39664
3.39103
3.33854
3.33852
3.37095
3.35713
3.37451
3.43859
3.40062
3.39012
3.32835
3.24626
3.29582
3.35025
3.3357
3.44275
3.24871
3.34421
3.25247
3.26093
3.24841
3.23653
3.27759
3.26124
3.27796
3.21925
3.28332
3.25428
3.26214
3.25835
3.24766
3.2674
3.27301
3.21627
3.25698
3.24462
3.24203
3.20933
3.21645
3.2635
3.19548
3.24598
3.30501
3.26741
3.27964
3.33636
3.28404
3.39757
3.35039
3.27876
3.35525
3.45074
3.34976
3.35569
3.28617
3.24772
3.2739
3.34019
3.35036
3.23053
3.22194
3.21701
3.25826
3.33393
3.33017
3.36862
3.22245
3.29606
3.25209
3.36865
3.28652
3.22433
3.20355
3.21566
3.30306
3.25124
3.244
3.2579
3.32333
3.26277
3.29927
3.28884
3.26247
3.40037
3.23061
3.29129
3.23919
3.32714
3.38247
3.28969
3.27805
3.25645
3.27085
3.27105
3.2918
3.24442
3.31467
3.35503
3.40431
3.25322
3.4223
3.30147
3.34716
3.27034
3.34677
3.40482
3.25729
3.43959
3.39526
3.21398
3.2783
3.33324
3.20464
3.27925
3.36951
3.31233
3.35297
3.36475
3.25761
3.36328
3.30629
3.24746
3.27911
3.314
3.27217
3.23522
3.34638
3.39969
3.26658
3.38018
3.31188
3.29861
3.2287
3.37159
3.35986
3.38207
3.38526
3.33684
3.30722
3.35375
3.26711
3.25348
3.40937
3.28202
3.31833
3.36775
3.37087
3.37001
3.32714
3.29913
3.36555
3.26874
3.32378
3.4312
3.29358
3.26896
3.22593
3.35981
3.36595
3.39203
3.23692
3.29581
3.30871
3.43717
3.39099
3.38924
3.31611
3.38771
3.40648
3.30292
3.32332
3.27122
3.41171
3.40364
3.28317
3.35522
3.26917
3.23042
3.28764
3.23403
3.34238
3.25455
3.34576
3.42135
3.35238
3.29979
3.3926
3.28646
3.35102
3.38614
3.36916
3.30578
3.39377
3.40346
3.35827
3.26982
3.31979
3.34158
3.26969
3.37349
3.37178
3.44994
3.35148
3.40347
3.27374
3.38874
3.28642
3.3997
3.33168
3.30687
3.37242
3.21445
3.36158
3.43863
3.2621
3.35118
3.41784
3.43177
3.27666
3.39347
3.38724
3.29264
3.37532
3.26582
3.33308
3.34158
3.3386
3.38328
3.29564
3.3221
3.31728
3.28599
3.24273
3.33338
3.38175
3.30765
3.39519
3.32197
3.35427
3.40944
3.34122
3.34993
3.3055
3.2314
3.36855
3.3828
3.41345
3.26966
3.27885
3.39796
3.37636
3.38442
3.32937
3.37994
3.39173
3.38427
3.31678
3.34488
3.33665
3.35455
3.29283
3.26161
3.35579
3.37098
3.25837
3.38117
3.24614
3.29203
3.29053
3.35497
3.34985
3.36689
3.30754
3.37162
3.28265
3.3907
3.35628
3.37547
3.39929
3.30295
3.39776
3.33618
3.38504
3.33924
3.34957
3.35088
3.33018
3.25271
3.40282
3.38823
3.30961
3.40615
3.33198
3.31889
3.33657
3.39953
3.31584
3.40109
3.37709
3.35595
3.35223
3.32455
3.32451
3.28819
3.34528
3.37677
3.3553
3.32624
3.29375
3.37586
3.32204
3.30613
3.2748
3.30186
3.33832
3.34452
3.37962
3.35361
3.29964
3.38141
3.37704
3.34812
3.31373
3.27911
3.29535
3.32495
3.35579
3.33714
3.3461
3.2468
3.3394
3.42711
3.36844
3.3352
3.35082
3.31764
3.35942
3.283
3.36485
3.35481
3.35365
3.31871
3.31803
3.35868
3.3084
3.30516
3.29012
3.34446
3.3135
3.38887
3.34642
3.37303
3.32044
3.40662
3.35614
3.3359
3.26908
3.36947
3.30896
3.38041
3.36762
3.30238
3.30347
3.31892
3.35476
3.34601
3.30104
3.31301
3.36815
3.38169
3.30823
3.37721
3.32418
3.33194
3.30764
3.28893
3.37165
3.31133
3.3044
3.375
3.31474
3.32353
3.31151
3.34196
3.38038
3.33284
3.33515
3.34289
3.3003
3.28411
3.30074
3.30248
3.36242
3.36892
3.30039
3.35599
3.3154
3.32581
3.35232
3.34874
3.35988
3.3134
3.3705
3.3593
3.43094
3.37506
3.37005
3.36846
3.35709
3.38781
3.37452
3.33125
3.36646
3.33432
3.33016
3.33165
3.31066
3.30783
3.36244
3.32232
3.32565
3.29863
3.28954
3.26147
3.30655
3.30455
3.31076
3.3504
3.36385
3.31333
3.39164
3.33761
3.31692
3.29718
3.37413
3.38036
3.31032
3.32318
3.32969
3.36128
3.32535
3.34898
3.28281
3.31386
3.38704
3.35293
3.40428
3.33056
3.30953
3.32337
3.38766
3.30461
3.38589
3.32911
3.34198
3.30869
3.35805
3.34913
3.31833
3.35647
3.36688
3.35145
3.28687
3.35263
3.38846
3.28825
3.33652
3.3141
3.32602
3.29623
3.32237
3.39285
3.32043
3.36302
3.31237
3.34284
3.35486
3.32487
3.319
3.32016
3.30947
3.32395
3.34491
3.30638
3.34978
3.36258
3.32547
3.32361
3.34317
3.38327
3.37436
3.32699
3.33287
3.31989
3.32587
3.33136
3.3509
3.25666
3.36334
3.2918
3.34428
3.34613
3.30866
3.43109
3.38305
3.3837
3.34861
3.32803
3.33402
3.30649
3.31959
3.31915
3.32681
3.34706
3.33249
3.32886
3.34909
3.34675
3.32315
3.3615
3.34844
3.36853
3.34405
3.27957
3.36363
3.36023
3.28984
3.30952
3.37927
3.38138
3.36854
3.41233
3.26949
3.40513
3.32274
3.36562
3.34803
3.33879
3.29765
3.31781
3.34551
3.30926
3.32304
3.28984
3.24485
3.36132
3.33965
3.31014
3.35125
3.32812
3.2966
3.33493
3.32903
3.42337
3.34483
3.40747
3.32257
3.3387
3.33804
3.34631
3.26506
3.31234
3.25563
3.29847
3.37106
3.36166
3.32094
3.33512
3.29795
3.27962
3.34176
3.36517
3.32199
3.33161
3.3611
3.3309
3.28854
3.3045
3.27846
3.35776
3.29286
3.28567
3.26166
3.35332
3.36521
3.31393
3.34564
3.33469
3.35627
3.34394
3.32191
3.31558
3.32001
3.35057
3.31824
3.31057
3.33088
3.33197
3.34751
3.30565
3.32576
3.32502
3.31647
3.30931
3.33418
3.34789
3.31507
3.28786
3.32728
3.32772
3.31553
3.3299
3.29016
3.34285
3.32726
3.32659
3.33545
3.34608
3.3391
3.32141
3.31209
3.3644
3.3163
3.34149
3.34981
3.35981
3.37606
3.34118
3.34115
3.31285
3.32437
3.29453
3.34334
3.2701
3.32456
3.3322
3.38282
3.33296
3.32509
3.32978
3.33173
3.3209
3.35927
3.38221
3.34155
3.32382
3.34844
3.30782
3.35124
3.32806
3.27798
3.32329
3.32781
3.36275
3.26657
3.37515
3.36605
3.32339
3.33362
3.30781
3.30971
3.26767
3.35695
3.32371
3.36673
3.32544
3.36861
3.32397
3.36748
3.32217
3.29955
3.32719
3.34763
3.32286
3.30325
3.30877
3.2837
3.28204
3.32774
3.3005
3.29979
3.32217
3.2931
3.29052
3.33214
3.30763
3.29601
3.25692
3.33719
3.30871
3.32989
3.31965
3.35536
3.34313
3.34718
3.29303
3.3261
3.32191
3.3276
3.27081
3.32343
3.32569
3.29284
3.30791
3.32247
3.29167
625
675
3.30896
179
SCALARS cell_perimeter float
LOOKUP_TABLE default
6.92874
6.94148
6.96489
7.1949
7.12617
6.8202
7.08005
7.65105
6.93415
6.92835
7.38913
7.00227
6.79801
7.24559
7.04334
6.79328
7.17372
6.96941
6.92261
6.97549
6.94356
7.27265
7.2412
7.58005
7.59875
6.95788
7.96355
7.15234
6.90437
7.06968
6.94876
7.04906
8.17799
7.03431
7.1258
7.33797
7.89445
7.51833
7.82465
7.63678
8.26616
8.65839
8.18497
7.7583
7.38131
9.60422
8.02703
7.64853
8.04432
7.65357
8.12069
8.43687
7.78212
8.06888
7.67135
7.21477
7.43539
7.38884
8.80943
7.3236
7.72553
9.7072
8.61344
7.03607
7.15196
7.24189
6.90025
7.09143
7.1848
6.86482
7.77808
7.07377
7.17184
7.07859
7.24083
7.21733
7.78554
7.27169
6.93594
7.87054
8.2354
6.79009
7.02281
7.8506
7.49914
7.97725
6.82239
7.97758
7.09037
6.99708
7.79561
7.31328
7.65074
7.13039
7.92947
7.9685
7.36169
6.94347
8.2208
7.18963
7.16979
6.94247
7.11164
8.05425
7.21571
7.03123
6.85389
7.47856
7.31684
8.59137
8.65749
8.56397
10.167
7.21515
7.23856
7.05614
6.91718
7.37758
8.2576
7.15008
7.6423
7.29053
8.94303
7.16677
7.2646
8.59718
7.25176
7.13395
7.7167
7.02598
7.28584
7.7875
8.26346
7.32094
7.30832
7.05686
7.05237
8.18848
6.94879
7.32572
8.20521
6.91272
7.57542
7.56053
7.37231
7.23066
7.2012
9.22201
7.04057
7.33718
7.30801
8.21544
7.09458
7.13798
6.81573
6.83807
8.01473
6.99189
7.54551
8.13245
7.70493
6.81763
10.1851
7.32149
7.13386
6.91906
6.99821
7.15232
7.42758
7.12336
9.41723
7.85414
7.15352
7.41946
7.49533
8.21109
6.99554
7.11677
6.98199
7.98108
10.9325
6.97656
6.91331
7.05173
6.90687
7.33885
6.93534
6.91057
7.4131
7.11687
9.51216
7.03119
7.27489
7.39575
6.91684
7.22781
8.40505
7.33381
7.53987
6.97874
8.42368
7.02691
7.19817
7.03537
7.05107
6.89158
10.5362
7.05959
6.92337
6.9208
10.0677
6.91382
7.05618
7.03675
7.32934
7.03266
7.69923
8.24637
6.99586
6.96944
6.93081
7.02647
7.01609
9.67436
7.35429
8.26638
7.08761
7.08413
7.42294
7.08647
7.67561
7.13921
7.10617
7.35245
7.11123
6.95874
6.91872
7.45349
6.92135
7.04959
6.87311
6.93689
7.55295
7.13232
7.00906
6.93455
6.83399
7.17221
6.86649
7.01342
8.00598
8.20342
6.82256
7.07636
7.35775
7.34448
7.11862
7.32168
6.88218
7.10468
7.31049
7.64853
7.47971
7.15339
7.14407
6.93819
8.08843
7.91132
6.89803
7.10533
7.02225
7.01218
6.90185
7.59404
6.96327
7.41849
7.00742
7.42337
7.47634
6.86524
7.44664
6.93937
6.96057
8.59992
6.79798
7.30757
8.49041
7.44249
7.18975
7.06077
6.93314
7.67957
7.28834
7.64319
7.09786
6.96467
7.03981
7.22862
8.41402
7.00077
7.10836
6.97599
9.28822
7.27099
7.06975
7.11104
8.02928
7.08714
7.0903
7.67654
6.95172
7.47003
7.00606
6.82508
7.29526
7.14508
6.98011
7.13871
6.81531
7.09012
6.94745
7.76887
7.76946
7.10824
6.92925
7.18318
6.99098
7.21258
6.92659
7.02597
7.26058
7.59142
7.21406
7.03283
7.00825
7.02279
7.6476
7.35946
6.96127
7.29766
7.08568
7.04399
7.29499
8.53919
7.00601
7.17919
7.04316
6.95326
7.55823
9.73464
7.46613
6.83994
7.40978
7.11524
7.19333
6.95055
7.08339
6.88179
6.94649
6.96468
6.95401
6.96495
6.92572
7.39173
7.35931
7.14887
7.13858
6.86067
7.12186
7.00998
6.95118
7.08763
6.94008
7.11028
6.88159
7.71741
7.95447
7.07112
7.37474
6.99521
8.88387
6.85218
7.5959
7.01443
6.86976
6.89364
7.22395
7.07306
6.86521
7.0451
6.88939
7.03779
6.86831
9.11274
7.00094
7.01602
7.10855
7.18278
6.83845
6.91066
6.8669
7.0267
7.46347
6.94416
6.83336
6.98659
6.89829
7.1734
7.65017
7.37597
8.67114
7.01809
6.97352
7.79752
6.94249
6.96472
7.22337
6.87774
7.10498
6.99221
7.06061
6.88598
6.98041
7.18318
6.94022
7.29858
7.06861
7.4038
6.8509
6.90405
7.11374
6.96954
7.36842
6.89923
6.91324
6.97157
7.04409
7.12767
6.83822
7.05945
6.8459
7.18173
7.32781
7.8557
7.24271
6.82905
6.89377
7.15659
6.98089
6.96883
6.9624
6.82009
6.93935
6.85123
7.0495
7.06287
7.09853
7.04951
7.01215
6.98779
6.91256
7.49306
7.47818
6.82992
6.94633
6.8915
6.875
7.16142
7.44951
7.0095
6.93905
6.87305
7.26779
7.33637
6.86829
6.79391
7.21324
7.20846
7.07148
6.91117
6.87741
7.26219
6.90121
6.93051
6.95234
7.08347
7.49402
7.07498
7.04132
6.89823
7.10643
7.19059
6.84012
6.98602
7.16243
7.82575
7.00483
6.99291
6.88596
8.0359
7.08743
6.9838
7.29817
6.91633
7.04735
6.90186
7.13632
6.93634
7.01482
7.04299
6.8216
6.92559
6.96538
6.86868
7.01075
6.9148
7.36214
6.98945
7.24698
7.00034
7.09311
7.17283
6.85556
7.07632
7.44696
6.93621
6.98849
7.03496
6.96848
7.0645
7.15593
6.97215
7.54313
6.8067
6.90721
6.9025
7.00562
7.00438
7.64884
7.07176
6.94868
6.92509
7.4298
7.03019
7.41604
7.12119
7.05652
6.98975
7.06334
7.22442
6.7571
6.94056
7.09228
6.87953
6.82872
7.04014
6.84789
6.9692
7.30916
6.91486
7.408
6.93805
7.02512
7.3319
7.25209
6.85028
7.13518
6.8683
7.04082
7.00934
6.86225
7.13785
7.0789
6.9555
6.85238
6.89073
7.31231
6.87441
6.91025
6.94352
7.26809
7.30977
6.93556
7.12017
6.91435
6.88903
6.99949
7.10794
7.03427
7.12594
6.98494
7.13298
6.86331
6.86579
7.14361
7.12949
6.94349
6.91091
6.93568
6.85082
7.00129
7.3576
7.19332
6.98575
7.10212
7.22424
7.17009
7.05413
6.95794
7.1045
6.96912
7.1421
6.73659
7.14061
6.91113
6.9114
7.00109
7.33824
7.25617
6.96656
6.96552
6.88854
6.91454
6.88996
7.01155
7.29848
7.03811
6.81535
6.85283
7.09216
7.01167
6.91594
6.99578
6.80145
6.84778
6.87718
6.95615
6.90936
7.12934
7.23609
7.10304
7.44659
6.89998
6.93288
6.77956
6.79201
6.90315
6.83615
7.32718
6.96594
6.99396
6.90263
6.94759
6.96162
6.91271
6.92532
6.93501
6.82809
6.83325
7.06253
7.20923
6.86102
7.0712
7.04109
7.15087
6.94418
7.00963
6.79974
6.88229
7.05734
7.27932
7.22647
6.95938
6.9415
7.02033
7.4033
6.83865
6.9306
6.89161
7.32199
6.89219
7.03505
7.10392
6.82069
6.96724
7.32148
6.80516
6.8468
6.96009
7.16426
6.91823
7.09636
6.88395
7.19901
7.06929
7.08941
6.99336
6.82559
6.95554
6.98962
6.94179
6.94201
7.02166
7.09891
6.96416
7.07013
7.26359
6.91386
7.03739
6.99407
6.88421
7.33322
6.93125
7.37201
7.07846
6.94233
6.87257
6.81571
7.13976
6.86756
7.17122
6.93983
6.99148
7.28932
6.93815
613
685
3.32418
193
SCALARS cell_frequency_modifier float
LOOKUP_TABLE default
3.61004e+18
8.528e+17
5.02787e+17
4.66343e+15
1.59879e+15
5.4009e+14
2.83931e+13
1.0045e+14
2.67162e+15
1.35284e+17
1.32374e+14
9.14202e+15
7.46891e+11
3.1652e+13
4.45884e+16
2.09675e+15
4.07287e+13
4.99487e+14
7.38633e+11
1.73121e+10
7.38651e+11
8.89295e+12
6.39064e+13
5.52918e+12
6.25238e+11
6.63299e+10
1.11641e+10
2.79564e+10
3.60711e+11
2.86474e+12
1.22043e+15
4.32585e+13
4.46773e+10
9.21941e+09
6.29066e+08
6.63881e+13
1.08117e+12
1.29111e+19
5.29469e+18
1.30014e+18
4.59212e+16
1.34703e+16
6.12989e+15
4.57266e+14
1.31762e+14
4.10264e+12
7.83941e+11
4.00472e+13
1.50144e+14
5.94094e+15
1.27174e+16
2.90627e+16
2.05191e+18
7.69615e+18
10000
10000
6.05567e+17
2.09168e+15
1.03849e+10
2.17222e+15
6.78261e+17
1.84309e+12
2.00519e+12
2.02817e+16
2.67468e+13
1.33062e+15
1.42135e+10
1.5055e+11
1.32768e+14
9.43479e+10
2.91686e+09
8.83134e+09
2.06648e+11
1.20047e+17
4.61095e+16
3.43372e+15
4.06677e+10
6.71327e+12
8.54139e+14
10000
7.93428e+09
4.09252e+18
2.66219e+11
2.89078e+10
797157
7.08525e+18
7.06159e+16
2.73094e+18
1.12469e+11
2.84913e+14
3.7767e+18
10000
3.29726e+17
3.00982e+15
1.19552e+17
4.24039e+14
3.22448e+13
2.25656e+14
7.80713e+16
8.775e+14
1.2988e+15
1.00042e+14
3.10377e+09
9.32295e+11
4.81091e+10
2.30011e+13
2.98582e+11
3.4915e+08
6.96683e+11
9.18885e+12
1.01474e+11
1.12485e+13
4.85897e+09
8.99703e+11
1.8535e+13
6.11236e+09
3.55634e+10
2.17479e+09
3.22543e+11
7.21599e+07
4.02008e+09
8.84827e+09
4.75356e+12
1.30547e+08
5.23997e+08
5.1373e+09
2.43418e+07
8.59434e+06
2.9363e+11
2.03996e+11
4.13857e+09
5.14133e+10
5.76594e+06
9.82246e+08
8.04376e+08
5.98956e+08
1.21841e+08
2.21938e+08
2.01844e+08
3.24919e+07
1.32417e+11
2.26126e+11
7.0295e+10
1.03408e+10
13263.7
1.87754e+09
9.32681e+07
2.40526e+10
45676
7.68419e+09
4.69292e+11
2.5736e+09
2.31561e+07
5.40831e+07
1.50994e+08
2.06975e+07
4.77053e+08
4.48135e+10
1.44311e+06
1.01554e+08
2.5649e+07
2.26847e+07
8.25583e+08
6.52019e+07
5.73757e+06
10.9688
155677
1.15659e+09
1.72854e+09
243250
4.71646e+10
3.29314e+08
3.37105e+06
543517
4.33628e+06
4.55188e+08
3.14953e+07
6.40575e+06
9.01122e+06
1.96573e+10
2.97033e+09
3.09558e+07
1.50121e+06
227416
5.24784e+06
2.12264e+08
165070
16868.9
1344.06
4.50081
6.48616e+08
661160
1.34927e+06
4.69753e+06
1.64114e+06
7.97875e+07
4.50488e+08
3.6911e+07
9.9997e+06
4.46014e+06
1.09562e+08
12547.6
809666
7.80841e+06
5.99513e+08
382647
1.62809e+09
151964
562136
41518.2
9.91814e+08
87499.7
574.911
584185
163.918
40261.8
974378
5.23287e+07
365931
843750
20444.6
4.26492e+06
58212
5.76976e+08
156.087
130676
200766
505620
6.64107e+08
66766.8
5.91551e+07
79522.3
1442.79
1.72337e+06
12954.4
4815.72
26942.2
22888.5
53681.7
112035
11543.2
16305.3
2.25076e+06
1.36668
17.1991
281153
56246.5
5.78641e+06
280.883
2.46008e+06
1.92109e+06
3.19622e+07
381.012
1062.94
10670.4
5615.38
10129.3
34090
2681.16
95326.7
1249.15
3.40297e+06
133460
10183.2
130.808
199.223
1.10597e+07
3.0234e+06
8.81443
2871.05
30.2574
5.82649
16945.5
1082.66
17828.2
9.06491
32672.1
111401
279274
150.498
1.57732e+07
233.339
5054.76
1.90807e+08
2099.52
148.223
1.4707e+07
827315
720.522