# vtk DataFile Version 2.0
2D-vertex
ASCII
DATASET UNSTRUCTURED_GRID
POINTS 378 float
0.195527 -2.07115 0
2.72629 -1.9148 0
3.13153 -1.0014 0
2.15534 0.074771 0
-0.190266 0.291597 0
-0.952761 -1.13371 0
3.70943 -0.979542 0
4.3043 -0.136023 0
3.44671 1.34018 0
2.32621 1.04109 0
1.17444 2.25811 0
-0.562721 2.82881 0
-1.37397 1.59921 0
-1.60086 1.55144 0
-2.13815 0.00429475 0
-1.66156 -0.877674 0
4.8886 -0.306408 0
5.77697 0.575903 0
4.0141 2.05404 0
3.66829 1.97931 0
2.86447 2.9182 0
1.70751 2.86685 0
1.2038 6.23273 0
0.120483 6.20857 0
-0.640099 4.4527 0
-1.9942 3.71006 0
-1.97739 1.9396 0
-3.33644 1.67848 0
-3.83545 0.751137 0
-3.55244 0.0413702 0
6.86983 0.566443 0
7.54965 1.33616 0
7.37059 2.63523 0
5.22134 3.711 0
5.74316 4.30809 0
3.38946 5.52282 0
2.72529 6.66418 0
1.68561 6.84502 0
0.656194 9.61716 0
-1.09631 9.57308 0
-0.726498 7.01247 0
-2.4905 6.19724 0
-3.46552 4.86822 0
-4.55729 4.9466 0
-5.25435 3.73301 0
-6.70925 3.4799 0
-6.9998 2.50832 0
-5.44286 1.05827 0
7.87679 3.3444 0
7.57602 4.29905 0
6.90203 4.65838 0
6.24655 6.65652 0
3.87193 7.71478 0
3.79557 8.42476 0
2.31203 9.77961 0
2.91468 10.5923 0
-2.17804 10.7666 0
-2.15192 10.2031 0
-3.32881 9.11218 0
-3.04221 7.19243 0
-4.85053 7.67786 0
-6.18817 6.55122 0
-8.15988 5.32629 0
-8.0335 4.72524 0
8.55556 4.75355 0
8.56213 4.77596 0
7.23391 6.69712 0
7.62338 8.00484 0
6.46939 9.0701 0
6.68481 9.85757 0
6.0411 10.6636 0
6.02447 11.0456 0
-2.9367 13.0315 0
-3.11151 12.8887 0
-6.7062 11.1079 0
-6.02983 10.0299 0
-6.74993 8.9804 0
-6.61277 8.63757 0
-9.12694 5.99182 0
-8.96412 5.52925 0
10.066 5.10073 0
10.4047 6.14794 0
9.69382 7.17076 0
10.7905 7.58252 0
10.5466 9.17928 0
10.7832 10.0305 0
9.69032 15.122 0
9.62644 18.0039 0
-8.90816 17.9415 0
-8.97422 17.4492 0
-10.5719 11.0433 0
-10.2335 10.3108 0
-10.5925 9.74188 0
-9.83254 8.49075 0
-10.5692 7.25597 0
-10.1279 6.15694 0
3.58632 -3.75596 0
4.82771 -3.22004 0
5.70903 -2.81019 0
8.14011 -1.20911 0
9.46988 0.245003 0
10.8429 2.58833 0
10.9727 2.81791 0
11.7195 3.95993 0
12.5106 5.93492 0
12.7294 6.7833 0
12.8664 10.4421 0
11.478 19.1148 0
-11.1605 19.3036 0
-12.7582 11.2201 0
-12.7817 9.74068 0
-12.518 7.01118 0
-11.7263 4.98887 0
-10.8945 3.807 0
-10.262 2.98279 0
-9.28032 1.50043 0
-7.32437 -0.703566 0
-5.21547 -2.15587 0
-3.08934 -3.18878 0
-0.0725854 -4.05743 0
12.5389 12.5765 0
9.30266 12.0315 0
-12.5192 14.6807 0
-10.2374 14.6368 0
-0.435704 4.1831 0
1.01898 4.28472 0
-1.99445 6.11303 0
-1.37242 4.45471 0
4.77213 5.72812 0
5.16263 6.68104 0
0.32514 10.9379 0
0.16097 10.0691 0
-1.3145 8.19535 0
-2.69555 7.92272 0
6.24602 6.65896 0
5.47529 8.5166 0
4.51313 8.9541 0
4.4418 10.1141 0
2.56469 11.2991 0
2.56302 11.2972 0
-2.9788 11.2341 0
-4.52212 10.0421 0
-4.09696 9.21383 0
-4.94633 8.26771 0
1.26422 1.70252 0
-0.239256 0.695289 0
6.55668 2.84823 0
5.44525 1.22758 0
5.2192 3.71228 0
3.18259 4.44115 0
-9.3975 12.4814 0
-6.4654 11.639 0
3.18019 4.44044 0
1.65623 5.09777 0
-9.75517 8.3309 0
-8.32852 7.58677 0
-1.00705 -1.15923 0
-1.46601 -3.78669 0
1.79769 24.754 0
2.16089 26.3773 0
1.04542 -1.73236 0
1.17874 -0.332909 0
2.68607 8.79444 0
1.46877 7.64737 0
9.13381 11.3648 0
6.13463 10.8514 0
5.70702 22.1214 0
0.612639 12.483 0
-2.95282 -0.244893 0
-3.68858 -2.92694 0
-4.69703 2.75518 0
-5.55744 1.67847 0
-5.89469 -1.74617 0
-4.81302 0.621153 0
0.434086 8.15031 0
-0.649762 7.6463 0
9.64173 6.91265 0
8.01817 6.09278 0
5.58081 0.0491976 0
7.2199 -1.9224 0
1.51349 -4.15759 0
1.5821 -2.1729 0
-6.53637 1.82321 0
-8.10402 0.030011 0
-5.85811 5.42909 0
-7.13768 4.34003 0
7.68331 2.79675 0
10.0654 1.14655 0
-12.7077 8.42422 0
-9.8343 8.48896 0
13.0025 8.87332 0
11.007 8.69627 0
-3.07944 3.94895 0
-3.95878 2.71704 0
-9.78547 2.30374 0
-7.13924 3.82002 0
-3.95847 7.04253 0
-4.73471 5.28682 0
-7.29888 7.66899 0
-6.8721 6.70034 0
8.62749 8.23526 0
8.87629 8.8908 0
-0.868005 12.248 0
-0.790784 11.658 0
12.5408 12.8026 0
10.206 13.5581 0
9.49616 16.3555 0
2.44452 11.5164 0
8.27432 9.93736 0
9.61397 10.9719 0
-7.9311 9.22589 0
-8.24721 10.188 0
-2.32224 14.4495 0
1.1694 13.7499 0
-9.89369 15.3309 0
-4.51342 13.0388 0
9.61345 10.9744 0
12.6539 11.743 0
-10.0092 17.1018 0
-11.7625 18.133 0
-12.6534 12.5337 0
-9.67039 12.1376 0
9.597 21.7478 0
8.2128 19.8059 0
8.92625 12.4204 0
6.89066 12.2603 0
-9.65756 12.1004 0
-7.86172 10.9807 0
2.7201 14.5931 0
4.64716 13.4032 0
-5.02335 11.8199 0
-4.18396 10.8077 0
5.34277 13.3274 0
4.6412 11.6227 0
12.538 14.7865 0
10.3473 14.4313 0
-2.96365 14.1714 0
-4.98074 14.17 0
-1.43979 23.9345 0
0.243485 14.9742 0
-7.1102 12.5034 0
-5.00368 13.5409 0
-12.5839 13.4731 0
-9.84407 13.3679 0
5.77817 17.7826 0
7.87959 16.468 0
-0.853351 13.6856 0
-0.547189 12.5545 0
-7.37957 21.7962 0
-8.82493 22.9954 0
0.56786 24.3438 0
2.47061 15.615 0
-2.95782 16.6173 0
-6.64469 22.1106 0
-10.3637 15.9855 0
-12.3761 16.1217 0
-6.59108 16.3112 0
-6.43158 14.8658 0
-6.91235 13.0076 0
-7.61004 14.3636 0
12.1412 17.2455 0
9.9315 17.0183 0
-5.03731 23.5484 0
-5.28767 25.3608 0
6.49846 13.2193 0
5.34461 13.3257 0
8.8543 18.3486 0
7.60433 17.462 0
4.28281 14.3925 0
6.28998 17.5326 0
-2.05274 15.4424 0
-0.257447 15.7233 0
6.96319 24.312 0
5.61499 22.9366 0
0.544002 14.9518 0
1.59157 15.9987 0
3.7199 23.2951 0
4.02882 16.7954 0
12.3606 16.0249 0
9.91565 15.6974 0
-8.1305 16.5106 0
-8.59731 15.4743 0
-9.6526 13.7048 0
-7.73517 13.9387 0
-7.4666 21.0368 0
-5.79631 17.8401 0
0.195068 24.6733 0
0.424591 26.6088 0
2.14004 13.7586 0
3.02216 12.5166 0
-3.88664 16.1518 0
-4.13632 15.2286 0
-9.8532 21.6222 0
-8.29521 20.6253 0
0.373001 17.2756 0
-0.115508 16.8682 0
7.91939 14.6971 0
7.2813 15.4249 0
9.11355 13.1507 0
7.82303 14.1882 0
-6.48065 23.0722 0
-7.45995 24.2975 0
-2.52815 16.4621 0
-1.4236 17.4456 0
1.7037 17.2761 0
3.1743 17.6233 0
6.46317 15.3177 0
6.04568 15.8139 0
-5.95223 19.7939 0
-5.28867 20.0829 0
-8.40823 18.2064 0
-6.29168 17.3075 0
3.97558 16.4628 0
4.89086 15.5712 0
-4.12803 22.4521 0
-3.22774 18.3666 0
5.12822 25.4376 0
4.51633 23.604 0
-3.09506 26.0396 0
-2.3895 24.043 0
7.29898 19.7063 0
6.84089 17.8547 0
8.0604 23.2901 0
6.49879 21.8167 0
3.44988 19.5527 0
4.71774 20.5624 0
1.06509 19.5543 0
2.89452 19.7442 0
0.0468881 22.5399 0
-0.968462 22.7989 0
-1.88529 21.4359 0
-2.79635 20.5554 0
-6.16146 16.6596 0
-4.21859 15.2129 0
-4.24927 22.464 0
-5.34016 21.3532 0
3.61943 21.9248 0
4.66385 21.3783 0
-10.6346 20.2871 0
-8.4531 19.1526 0
-8.22589 19.3133 0
-6.30582 18.9127 0
-0.98506 19.2936 0
0.0437754 18.8202 0
2.67 23.7814 0
0.97805 20.6651 0
3.75774 25.9472 0
3.11238 23.8672 0
-4.37459 25.6303 0
-3.51574 23.2836 0
-5.05246 17.742 0
-4.27029 18.678 0
6.79162 20.4397 0
5.94379 19.8411 0
1.70046 17.2794 0
1.95599 19.0871 0
8.88107 19.1456 0
10.8207 20.2581 0
8.91031 22.424 0
6.97908 20.392 0
-3.00477 23.2232 0
-2.14734 21.4396 0
-1.62505 18.8335 0
-2.39219 19.1149 0
2.10999 21.5239 0
2.68383 21.2936 0
-4.49019 19.7012 0
-3.45298 20.687 0
3.73461 18.7287 0
5.53096 18.6151 0
-0.958256 20.4075 0
0.225605 21.0329 0
0.548032 22.9475 0
1.87878 22.5245 0
-1.04825 24.5201 0
-1.67052 26.4261 0
-0.00448266 24.6487 0
-0.597131 22.7042 0
CELLS 190 1262
5 0 160 161 4 5
6 8 9 3 2 6 7
6 4 161 3 9 144 145
8 156 5 4 145 12 13 14 15
8 7 16 178 17 147 18 19 8
7 144 9 8 19 20 21 10
6 124 125 153 22 23 24
8 25 26 13 12 11 124 24 127
7 14 13 26 27 28 29 168
6 146 147 17 30 31 32
7 18 33 148 149 152 20 19
5 20 152 153 125 21
7 22 37 163 174 175 40 23
5 24 23 40 126 127
5 26 25 192 193 27
7 28 27 193 170 171 47 173
9 148 33 146 32 186 48 49 50 34
5 35 128 129 52 36
6 36 52 53 162 163 37
6 38 54 55 139 130 131
7 40 175 132 133 59 41 126
6 42 41 59 196 197 43
7 44 43 197 184 185 195 45
8 49 64 65 177 66 134 51 50
7 51 134 135 136 53 52 129
6 53 136 137 55 54 162
8 55 137 70 165 71 233 138 139
7 57 56 140 231 141 142 58
7 59 133 58 142 143 60 196
6 61 60 143 77 198 199
5 65 80 81 176 177
6 67 200 201 208 69 68
7 69 208 209 216 164 165 70
5 71 225 264 265 233
8 73 72 236 291 333 237 241 215
5 92 93 210 211 91
8 77 76 210 93 189 154 155 198
5 2 1 96 97 6
5 7 6 97 98 16
5 17 178 179 99 30
4 48 186 187 101
5 49 48 101 102 64
5 65 64 102 103 80
6 105 83 82 176 81 104
4 190 191 83 105
5 121 164 216 217 120
5 214 254 255 122 123
5 91 90 109 110 92
5 110 188 189 93 92
5 78 95 112 113 79
5 62 79 113 114 63
5 195 185 63 114 194
4 47 116 172 173
5 14 168 169 118 15
5 5 156 157 119 0
5 160 0 119 180 181
4 99 100 31 30
4 103 104 81 80
5 293 284 248 249 292
4 111 112 95 94
5 182 183 116 47 171
6 120 204 205 298 224 121
5 122 242 243 282 123
5 124 11 10 21 125
6 126 41 42 192 25 127
5 128 34 50 51 129
6 130 203 56 57 39 131
5 132 39 57 58 133
5 134 66 67 68 135
6 136 135 68 69 70 137
8 138 207 167 247 202 203 130 139
5 140 73 215 230 231
6 142 141 75 76 77 143
5 144 10 11 12 145
4 146 33 18 147
5 148 34 128 35 149
7 150 221 226 227 74 151 240
7 152 149 35 36 37 22 153
5 154 94 95 78 155
4 156 15 118 157
4 222 223 356 357
6 160 181 1 2 3 161
5 162 54 38 174 163
6 164 121 224 225 71 165
6 166 273 317 276 336 337
4 168 29 117 169
6 170 44 45 46 182 171
5 172 117 29 28 173
6 174 38 131 39 132 175
6 176 82 200 67 66 177
4 178 16 98 179
4 180 96 1 181
4 182 46 115 183
6 184 61 199 62 63 185
5 186 32 31 100 187
5 188 111 94 154 189
5 190 106 85 84 191
6 192 42 43 44 170 193
5 194 115 46 45 195
5 196 60 61 184 197
6 198 155 78 79 62 199
6 200 82 83 191 84 201
6 202 72 73 140 56 203
4 204 234 235 205
6 206 261 87 266 267 245
5 208 201 84 85 209
6 210 76 75 74 227 211
6 246 247 167 213 274 239
6 214 123 282 283 259 281
5 216 209 85 106 217
5 218 89 88 108 219
5 220 109 90 226 221
5 222 358 359 320 223
5 224 298 299 264 225
5 226 90 91 211 227
5 228 288 289 229 268
6 230 151 74 75 141 231
7 232 229 289 207 138 233 265
5 234 278 279 86 235
7 236 212 270 302 252 290 291
6 253 248 284 308 309 335
6 240 151 230 215 241 258
5 242 220 221 150 243
6 244 277 312 313 307 269
6 246 212 236 72 202 247
5 248 253 300 301 249
8 271 239 274 275 304 354 294 295
6 252 302 303 362 363 315
4 254 218 219 255
5 256 280 281 259 257
6 258 241 237 257 259 283
4 260 107 87 261
5 238 374 375 318 319
7 264 299 296 297 306 232 265
6 267 266 356 223 320 321
6 268 229 232 306 307 313
5 270 212 246 239 271
4 272 316 317 273
6 274 213 288 228 251 275
7 276 347 344 373 364 365 336
5 278 260 261 206 279
6 280 89 218 254 214 281
6 282 243 150 240 258 283
5 284 293 340 341 308
5 286 250 158 159 287
5 288 213 167 207 289
7 290 350 285 311 332 333 291
5 292 338 339 340 293
6 328 377 329 330 370 371
6 296 86 279 206 245 297
6 298 205 235 86 296 299
4 300 262 263 301
5 302 270 271 295 303
6 304 275 251 312 277 305
7 306 297 245 267 321 269 307
7 308 341 285 350 351 366 309
7 310 88 89 280 256 332 311
5 312 251 228 268 313
6 314 334 335 309 366 367
5 316 346 347 276 317
5 318 348 349 360 319
8 320 359 352 353 369 244 269 321
5 322 272 273 166 323
5 324 368 369 353 325
5 326 343 294 354 355
6 286 376 377 328 372 250
6 330 329 238 319 360 361
5 332 256 257 237 333
5 334 262 300 253 335
6 336 365 327 324 325 337
5 338 108 88 310 339
6 340 339 310 311 285 341
6 303 295 294 343 342 362
5 344 158 250 372 373
5 346 159 158 344 347
6 348 263 262 334 314 349
5 350 290 252 315 351
6 352 323 166 337 325 353
7 354 304 305 368 324 327 355
5 356 266 87 107 357
5 358 322 323 352 359
6 360 349 314 367 331 361
7 362 342 370 330 361 331 363
6 364 345 326 355 327 365
6 366 351 315 363 331 367
5 368 305 277 244 369
6 370 342 343 326 345 371
6 372 328 371 345 364 373
5 376 286 287 375 374
5 376 374 238 329 377
CELL_TYPES 190
7
7
7
7
7
7
7
7
7
7
7
7
7
7
7
7
7
7
7
7
7
7
7
7
7
7
7
7
7
7
7
7
7
7
7
7
7
7
7
7
7
7
7
7
7
7
7
7
7
7
7
7
7
7
7
7
7
7
7
7
7
7
7
7
7
7
7
7
7
7
7
7
7
7
7
7
7
7
7
7
7
7
7
7
7
7
7
7
7
7
7
7
7
7
7
7
7
7
7
7
7
7
7
7
7
7
7
7
7
7
7
7
7
7
7
7
7
7
7
7
7
7
7
7
7
7
7
7
7
7
7
7
7
7
7
7
7
7
7
7
7
7
7
7
7
7
7
7
7
7
7
7
7
7
7
7
7
7
7
7
7
7
7
7
7
7
7
7
7
7
7
7
7
7
7
7
7
7
7
7
7
7
7
7
7
7
7
7
7
7
CELL_DATA 190
SCALARS cell_division_count float
LOOKUP_TABLE default
1
0
1
0
0
0
1
0
0
1
1
1
1
1
1
1
0
1
1
1
1
1
1
0
1
1
1
1
1
1
1
1
2
4
3
1
1
0
0
1
1
0
0
0
1
2
3
0
1
0
0
1
1
1
1
1
0
0
3
0
1
2
3
1
1
1
1
1
1
1
2
2
1
1
1
1
2
1
1
1
3
1
1
2
7
1
1
1
1
1
1
1
1
1
1
1
1
1
1
1
1
1
2
3
5
2
1
3
5
2
2
2
5
3
2
4
2
3
5
5
6
3
3
6
3
4
6
9
3
5
4
4
6
5
6
6
5
4
5
9
5
5
5
7
4
4
6
4
9
5
3
4
6
6
6
7
6
6
9
5
6
7
4
7
8
8
9
6
8
7
4
7
8
9
5
6
7
7
8
3
5
9
9
9
9
7
9
9
6
8
SCALARS cell_time float
LOOKUP_TABLE default
951
2.22229e+13
971
4.48239e+13
2.67348e+11
1.25633e+10
981
2.68223e+09
9.19769e+11
971
971
961
931
981
901
941
1.22696e+06
981
951
981
981
881
921
24763.4
981
981
981
981
981
871
931
871
831
571
721
821
961
1.00108e+18
2.94533e+15
931
921
106063
2325.76
1037.34
911
811
611
1028.01
921
3679.01
1296.18
901
941
951
961
931
1.12104e+13
22146.3
401
3017.96
931
851
671
981
981
981
981
981
981
981
861
741
981
971
971
971
801
961
961
961
101
951
951
811
171
951
941
941
931
931
931
931
931
921
921
921
911
901
901
881
871
871
861
731
551
831
821
671
451
811
811
811
101
391
801
421
741
731
461
421
311
691
671
301
671
391
401
91
611
461
591
591
11
401
291
321
521
301
491
61
461
461
451
151
441
421
191
171
31
401
391
391
391
381
321
121
311
301
51
131
131
111
281
41
111
1
101
191
181
171
171
151
151
21
131
131
121
111
111
101
101
101
91
61
51
41
31
21
11
1
SCALARS cell_area float
LOOKUP_TABLE default
3.24467
3.30226
3.29419
3.35934
3.35315
3.34436
3.3254
3.37886
3.35095
3.28201
3.33728
3.28722
3.37864
3.31758
3.30794
3.33245
3.40244
3.28591
3.33824
3.38086
3.38458
3.34025
3.34186
3.37307
3.35667
3.36796
3.42126
3.39176
3.38557
3.32912
3.25226
3.30175
3.34191
3.31361
3.4169
3.25451
3.35114
3.25705
3.2659
3.25335
3.24407
3.28542
3.26731
3.28716
3.22731
3.29937
3.27126
3.27156
3.26747
3.2564
3.27568
3.28067
3.22219
3.26242
3.24939
3.24619
3.214
3.22282
3.27412
3.20353
3.25223
3.31244
3.28447
3.28198
3.33816
3.29145
3.37798
3.34178
3.28533
3.35474
3.42182
3.33413
3.35125
3.28799
3.24606
3.27766
3.33539
3.34791
3.23807
3.22715
3.23141
3.26137
3.3257
3.31905
3.2849
3.22803
3.29995
3.25786
3.36184
3.2907
3.22944
3.2075
3.22196
3.30678
3.25802
3.25462
3.26612
3.32616
3.27009
3.30093
3.29397
3.27084
3.37273
3.24632
3.29256
3.25308
3.32513
3.34995
3.28675
3.28444
3.27544
3.27976
3.28332
3.281
3.25413
3.28574
3.34475
3.37874
3.27338
3.38121
3.26689
3.33929
3.28886
3.31177
3.36655
3.26259
3.38172
3.31444
3.22691
3.2632
3.3167
3.22253
3.28452
3.35076
3.30778
3.32263
3.31123
3.23215
3.32624
3.31788
3.2679
3.27826
3.3106
3.25142
3.2721
3.31881
3.35311
3.28014
3.26384
3.30799
3.29633
3.21898
3.29648
3.31458
3.35684
3.33649
3.3278
3.27202
3.28747
3.27907
3.29738
3.36739
3.27754
3.26941
3.2857
3.30662
3.29322
3.29792
3.23066
3.2957
3.2872
3.30401
3.31196
3.25384
3.2802
3.3075
3.29988
3.29615
3.32872
3.2576
3.28816
3.30247
3.33552
3.30073
3.3136
3.27424
3.29733
3.28686
3.23916
2.35542e-312
SCALARS cell_perimeter float
LOOKUP_TABLE default
6.92423
6.91172
7.01177
7.11848
7.07025
6.85333
7.0485
7.41728
6.89603
6.9689
7.36262
6.98165
6.8458
7.1393
6.98998
6.76487
7.13521
6.95701
6.99774
7.28445
6.91233
7.11259
7.1409
7.37588
7.41423
6.88912
8.11502
6.91727
6.82341
6.99892
6.96294
6.91712
8.18924
7.0281
7.06142
7.17789
7.62248
7.46589
7.75162
7.56636
8.17768
8.50207
8.03186
7.60497
7.3428
8.56551
7.32774
7.34185
7.84826
7.51679
7.89838
8.20339
7.71649
8.00609
7.63336
7.18867
7.38916
7.35368
7.13271
7.29991
7.65024
8.42302
7.72114
7.03234
7.00099
7.14788
7.00628
6.98416
7.07259
6.896
8.11754
6.98443
7.05925
7.12484
7.25771
7.17592
7.70604
7.14023
6.93986
7.82627
7.48821
6.78356
7.02419
8.02886
6.7936
7.91175
6.8113
7.90187
6.95793
6.97365
7.72932
7.30233
7.5853
7.02245
7.85028
7.78913
7.25217
6.86946
8.05445
7.06576
7.07808
6.87629
7.26899
7.5418
6.8546
6.97963
6.80855
7.06603
7.03978
8.08138
7.57102
7.95747
7.82763
7.12879
7.1925
7.02055
6.9688
7.90086
7.50843
6.88398
7.02627
7.07819
8.12452
7.10892
7.32259
7.10795
7.0877
7.04694
7.32508
6.9101
7.18684
7.39581
7.25905
7.39738
6.95466
7.19277
7.09501
7.29719
6.83388
6.91819
7.50166
6.77181
7.38331
7.10893
7.1582
7.10412
7.57283
7.44765
6.93152
7.01047
6.99879
7.33651
7.00464
7.00647
6.94011
6.76236
7.3904
6.95883
7.15573
7.26172
7.4995
7.26516
7.241
7.00869
6.99623
6.77451
7.09412
7.33043
6.90126
6.89694
7.71923
7.40129
6.96844
6.88094
7.25216
7.77551
7.08863
6.81502
7.18559
7.35703
7.76501
7.18232
6.95918
6.86873
6.85311
7.10622
6.79513
6.84516
7.30989
5.13523e-312
SCALARS cell_frequency_modifier float
LOOKUP_TABLE default
8.95822e+16
3.19611e+13
1.03388e+13
1.27854e+13
1.8323e+12
9.52715e+10
9.01199e+07
5.4254e+09
2.06615e+12
2.26534e+12
4.18159e+09
3.17174e+09
947904
2.89444e+07
2.20942e+10
3.11124e+11
1.56353e+09
1.63537e+07
415864
3396.01
779697
1.25705e+07
3.01601e+08
2.08443e+07
366829
15705.2
1407.53
4324.3
152403
545523
3.98702e+09
72116
2818.32
423.342
33.3922
3.7697e+06
96633.4
2.99637e+18
3.82882e+17
1.5673e+16
7.93543e+12
1.0098e+10
1.08161e+11
8.16257e+06
5.85415e+07
1267.64
2744.88
1.0515e+06
1.03543e+07
1.16838e+10
8.03925e+09
1.60155e+10
9.03425e+15
3.36428e+17
6.80121e+18
10000
2.75368e+15
1.19078e+10
135.452
1.30696e+09
6.28791e+14
245.069
233.416
3.10783e+10
1.1796e+08
6.47138e+07
2792.78
39446.4
1.55157e+06
14542.2
449.829
518.579
25832.1
4.961e+11
8.11053e+12
2.75973e+09
591.252
2.27818e+07
3.23991e+08
3.81132e+18
145.01
1.53323e+17
66896.1
881.886
1.96155
2.32427e+17
3.76861e+10
2.13962e+16
41411.8
2.83328e+06
1.86894e+17
10000
1.01767e+14
4.8617e+07
6.60874e+13
6.78578e+07
4.78219e+06
1.43587e+09
4.2479e+12
8.8136e+06
1.02719e+07
3.37373e+07
378.12
11617.9
6.32865
2.69473e+06
8457.18
51.6914
85.6636
13069.6
64.2452
6586.24
3.07273
931.04
493032
224.823
1923.15
202.428
3114.09
7.34695
118.707
213.324
463.549
5.51036
70.5238
100.144
3.77014
2.36963
824.471
2392.69
56.1261
424.425
2.84993
30.5863
1.6842
26.6882
26.023
112.218
21.8313
0.516004
1082.58
73.4968
159.704
159.793
153.815
206.209
3.50626
5.96476
107.108
13.2561
75.7725
112.165
10.0504
5.15826
3.47802
0.996489
2.94119
2805.54
1.45327
6.21953
1.00519
0.758924
8.81101
190.435
5.26092
0.711984
1.01417
20.6231
100.225
1.18669
3.12459
2.06434
2.13263
105.924
4.9974
0.697223
4.08152
1.08698
1.35998
234.364
1.24875
0.721306
0.637184
1.06663
1.04578
118.869
1.35162
1.49912
164.872
1
SCALARS cell_area_modifier float
LOOKUP_TABLE default
100
0.709193
0.961832
0.339623
0.352283
0.384537
0.482759
0.311624
0.365924
2.64336
0.418605
1.2901
0.316848
0.522822
0.626866
0.443142
0.294622
1.55556
0.409534
0.309076
0.301676
0.400848
0.392523
0.322251
0.345837
0.32784
0.2901
0.296936
0.299287
0.448399
100
0.722753
0.388489
0.553441
0.292343
100
0.362416
100
100
100
100
1.77465
100
1.38462
100
0.799154
100
100
100
100
11.4545
3.34513
100
100
100
100
100
100
126
100
100
0.570136
2.18497
2.84211
0.41402
1.07082
0.319527
0.396642
1.86207
0.34903
0.28789
0.438007
0.358974
1.20767
100
7.13208
0.43299
0.376869
100
100
100
100
0.476671
0.501992
1.95855
100
0.766734
100
0.336598
1.10204
100
100
100
0.659686
100
100
100
0.470735
100
0.736842
0.986945
100
0.325021
100
1.04132
100
0.489004
0.373149
1.49407
2.31902
16.4348
4.55422
2.47059
3.07317
100
1.62232
0.380665
0.314214
100
0.306569
100
0.405145
1.13514
0.587869
0.333628
100
0.304103
0.545455
100
100
0.530154
100
2.06557
0.369501
0.637437
0.495413
0.597156
100
0.464945
0.515689
100
6
0.606742
100
100
0.508748
0.355597
4.06452
100
0.616639
0.893617
100
0.872979
0.537696
0.342702
0.423292
0.459295
100
1.24752
5.17808
0.834437
0.330709
8.7907
100
1.69507
0.671403
1.0134
0.816415
100
0.937965
1.33569
0.683544
0.578867
100
3.6699
0.64837
0.782609
0.915254
0.453782
100
1.17028
0.696133
0.428086
0.751491
0.561664
29.0769
0.853273
1.43726
100
1
SCALARS cell_Gaussian_modifier float
LOOKUP_TABLE default
8.95822e+14
4.50668e+13
1.07491e+13
3.76459e+13
5.20121e+12
2.47756e+11
1.86677e+08
1.74101e+10
5.64637e+12
8.56994e+11
9.98934e+09
2.45852e+09
2.99167e+06
5.5362e+07
3.52455e+10
7.02087e+11
5.30691e+09
1.05131e+07
1.01546e+06
10987.6
2.58455e+06
3.13598e+07
7.68365e+08
6.46835e+07
1.0607e+06
47905
4851.88
14563.1
509219
1.2166e+06
3.98702e+07
99779.5
7254.56
764.927
114.223
37697
266637
2.99637e+16
3.82882e+15
1.5673e+14
7.93543e+10
5.69014e+09
1.08161e+09
5.89519e+06
585415
1586.23
27.4488
10515
103543
1.16838e+08
7.01839e+08
4.78771e+09
9.03425e+13
3.36428e+15
6.80121e+16
100
2.75368e+13
1.19078e+08
1.07501
1.30696e+07
6.28791e+12
429.843
106.828
1.0935e+10
2.84913e+08
6.04338e+07
8740.38
99450.8
833248
41664.4
1562.5
1183.95
71960.9
4.10792e+11
8.11053e+10
3.86946e+08
1365.51
6.045e+07
3.23991e+06
3.81132e+16
1.4501
1.53323e+15
140340
1756.77
1.00153
2.32427e+15
4.91515e+10
2.13962e+14
123030
2.57094e+06
1.86894e+15
100
1.01767e+12
7.36972e+07
6.60874e+11
678578
47821.9
3.05028e+09
4.2479e+10
1.19613e+07
1.04078e+07
337373
1163.37
116.179
6.07751
26947.3
17294.7
138.527
57.3357
5635.82
3.9091
1446.19
1.24372
302.958
4930.32
138.581
5052.08
644.235
31.1409
23.9651
1.18707
526.538
408.365
9.37344
211.385
1.00144
12.3976
4.34432
8.24471
23.9269
105.868
4.24425
1.37973
82.7772
2.64214
53.8706
43.5782
1.12218
46.9547
1.00061
10.8258
12.2495
263.216
1.59793
1.53815
405.326
9.86021
1.46752
1.07108
21.4973
84.7931
1.12165
11.5128
9.59328
10.1488
2.35414
6.40369
28.0554
1.16492
1.20113
1.20463
2.29484
1.00231
1.90435
3.10366
1.06044
1.00076
25.2606
1.00225
1.26518
2.33931
3.02005
3.68414
1.05924
1.36173
1.07535
5.21527
1.18763
2.99698
2.34364
1.06705
1.03616
1.48845
1.41935
1.86193
4.08808
1.58404
1.04304
1.64872
1
