# vtk DataFile Version 3.0
2D-vertex
ASCII
DATASET UNSTRUCTURED_GRID

POINTS 232 float
0.345676 -2.31388 0
3.16043 -1.92607 0
3.47155 -1.06536 0
2.48914 -0.128696 0
-0.086105 -0.0242471 0
-0.821548 -1.33056 0
4.20459 -0.970809 0
4.71473 -0.0335161 0
3.81335 1.17161 0
2.58311 0.729048 0
1.33647 1.70371 0
-0.540804 2.29596 0
-1.34201 1.12744 0
-1.7057 1.06353 0
-2.20584 -0.215636 0
-1.7684 -1.04196 0
5.32744 -0.112293 0
6.2487 1.01329 0
4.37952 1.99089 0
3.97385 1.85061 0
3.20643 2.5577 0
1.87682 2.37603 0
1.2461 5.46179 0
0.039596 5.35957 0
-0.6254 3.66159 0
-2.07952 3.11697 0
-2.15432 1.5564 0
-3.6283 1.37147 0
-4.06616 0.699974 0
-3.82549 -0.0111903 0
7.38089 1.20723 0
8.01335 2.33307 0
7.5317 3.46228 0
5.45957 3.83778 0
6.04825 4.70352 0
3.51745 5.17231 0
2.71602 6.07355 0
1.64151 6.08714 0
0.46771 8.95558 0
-0.999188 8.94244 0
-0.791312 6.12982 0
-2.62961 5.5338 0
-3.60627 4.5036 0
-4.7975 4.77746 0
-5.48824 3.95714 0
-6.93821 3.9955 0
-7.30591 3.26785 0
-5.80556 1.32272 0
8.03116 4.65972 0
7.65574 5.30598 0
7.17805 5.39636 0
6.00102 7.19277 0
3.60431 7.37229 0
3.3147 8.1229 0
1.75989 9.23396 0
2.28463 10.3498 0
-1.76719 10.5305 0
-1.81949 9.53394 0
-3.0786 8.74761 0
-3.05648 6.65469 0
-4.63369 7.60896 0
-6.03326 7.04445 0
-8.04242 6.60129 0
-8.15129 5.78358 0
8.44237 6.07815 0
8.41994 6.42954 0
6.85481 7.68447 0
6.52923 9.31031 0
5.25796 9.64561 0
4.96747 10.9124 0
4.04696 11.2447 0
3.07537 12.3338 0
-1.87465 12.7886 0
-2.46737 12.6052 0
-4.37003 12.0634 0
-4.16182 10.8518 0
-5.62298 10.0338 0
-5.66804 9.29813 0
-8.58436 7.84016 0
-8.65221 7.05099 0
9.56953 7.1558 0
9.45393 8.61373 0
8.53704 9.47937 0
9.11406 10.1429 0
8.00957 11.7388 0
7.67782 12.8816 0
2.5022 14.7902 0
2.37054 15.7688 0
-1.39821 15.9001 0
-1.80781 15.2124 0
-7.11653 13.9214 0
-7.40272 12.7273 0
-8.07872 12.4248 0
-8.03239 10.7597 0
-9.16557 9.78029 0
-9.27719 8.32637 0
4.05632 -3.57272 0
5.38571 -2.86202 0
6.39002 -2.24584 0
8.77663 -0.0878673 0
9.87064 1.7458 0
10.7188 4.55692 0
10.8853 5.29567 0
11.2258 6.80437 0
11.1826 9.14686 0
10.9203 10.3728 0
8.78104 14.0273 0
3.49092 17.5028 0
-2.17185 17.8758 0
-8.06604 14.9521 0
-9.416 13.3517 0
-10.806 10.3472 0
-11.0037 8.01761 0
-10.6668 6.36941 0
-10.2484 5.03097 0
-9.42475 2.72591 0
-7.63836 -0.0523556 0
-5.41454 -1.91176 0
-3.07418 -3.16628 0
0.14154 -4.07731 0
6.38821 15.973 0
5.15824 14.2573 0
-4.88739 16.9541 0
-4.19043 15.3115 0
-0.449756 3.4475 0
1.16764 3.63649 0
-2.01401 5.3581 0
-1.53231 3.68009 0
4.93647 5.72444 0
5.03646 6.79901 0
0.260418 10.6533 0
0.0364148 9.32901 0
-1.35809 7.35927 0
-2.64371 7.25804 0
6.00087 7.19527 0
4.63999 8.83548 0
3.87868 8.89552 0
3.22383 10.3365 0
1.97515 11.9642 0
1.70964 11.0828 0
-2.67722 11.1355 0
-3.66722 10.5944 0
-3.6249 9.01526 0
-4.49641 8.53767 0
1.41339 1.34368 0
-0.118236 0.179923 0
6.73149 3.41119 0
5.96153 1.3951 0
5.4576 3.8407 0
3.50369 4.15609 0
-4.73536 14.5538 0
-3.79093 12.85 0
3.31941 4.02914 0
1.73383 4.49079 0
-8.06666 10.2983 0
-7.145 8.9353 0
-0.959436 -1.38847 0
-1.39743 -3.79082 0
-0.257404 16.1292 0
-0.172827 18.1639 0
1.30887 -1.89705 0
1.37644 -0.658134 0
2.37145 8.21377 0
1.32003 6.88851 0
5.51324 13.3411 0
3.95369 11.8272 0
0.317516 15.7301 0
0.284807 12.4552 0
-3.06712 -0.42443 0
-3.86668 -2.79497 0
-5.04658 2.73451 0
-5.85487 1.9745 0
-6.25448 -1.31204 0
-5.06283 0.672224 0
0.311165 7.2754 0
-0.706252 6.77244 0
8.67506 8.9293 0
7.45203 7.53707 0
6.11896 0.450486 0
7.82945 -1.10797 0
1.90347 -4.12696 0
1.8623 -2.30216 0
-6.84798 2.27822 0
-8.45529 0.961986 0
-6.05189 5.7114 0
-7.32608 5.10339 0
7.915 3.83182 0
10.301 2.92471 0
-10.2524 11.8207 0
-8.05741 10.7435 0
10.0191 12.5197 0
8.65047 11.5432 0
-3.31988 3.50722 0
-4.17539 2.56061 0
-9.84404 3.87225 0
-7.44211 4.60457 0
-3.89537 6.68918 0
-4.94945 5.28607 0
-6.57045 8.72734 0
-6.51466 7.34918 0
7.15545 9.88257 0
6.98456 10.8635 0
-0.487118 11.792 0
-0.487632 11.1888 0
4.68183 16.9608 0
4.11586 15.7039 0
2.49692 14.792 0
1.49091 12.4825 0
5.81163 11.4764 0
6.25414 13.0065 0
-6.28546 10.5883 0
-6.05961 11.7577 0
-1.28863 14.2114 0
-0.293133 14.103 0
-2.91513 15.0402 0
-2.89039 13.0026 0
6.11134 13.2789 0
7.49788 15.1503 0
-2.66084 15.3187 0
-3.41342 17.4999 0
-6.4657 16.1531 0
-5.53609 14.5861 0
1.38947 18.0833 0
1.22353 16.2574 0
4.9367 14.2934 0
3.24223 13.2468 0
-5.87041 14.0308 0
-5.24072 12.3171 0
0.376469 14.7287 0
1.70984 14.1245 0
-3.72761 12.8607 0
-3.13704 10.8842 0

CELLS 348 1044
2 160 0
2 1 2
2 2 3
2 161 4
2 4 5
2 5 0
2 2 6
2 6 7
2 7 8
2 8 9
2 3 9
2 9 144
2 10 11
2 11 12
2 145 4
2 12 13
2 13 14
2 15 14
2 5 156
2 7 16
2 17 178
2 147 17
2 19 18
2 19 8
2 20 19
2 21 20
2 10 21
2 153 125
2 23 22
2 24 23
2 24 124
2 127 24
2 26 25
2 26 13
2 27 26
2 28 27
2 29 28
2 14 168
2 30 17
2 30 31
2 32 31
2 32 146
2 18 33
2 33 148
2 128 35
2 20 152
2 35 36
2 37 36
2 22 37
2 37 163
2 38 131
2 175 40
2 40 23
2 126 40
2 42 41
2 25 192
2 43 42
2 43 44
2 193 27
2 45 44
2 46 45
2 47 171
2 173 47
2 48 186
2 48 49
2 49 50
2 34 50
2 50 51
2 52 129
2 36 52
2 52 53
2 53 162
2 54 38
2 55 54
2 139 55
2 57 56
2 39 57
2 58 57
2 59 133
2 41 59
2 59 196
2 61 60
2 197 43
2 199 61
2 62 63
2 195 185
2 49 64
2 64 65
2 177 65
2 51 134
2 67 66
2 68 67
2 53 136
2 69 68
2 70 69
2 55 137
2 165 70
2 138 71
2 73 72
2 140 56
2 73 215
2 74 75
2 58 142
2 76 75
2 77 76
2 60 143
2 77 198
2 78 79
2 79 62
2 65 80
2 80 81
2 81 176
2 67 200
2 82 83
2 83 191
2 69 208
2 84 85
2 164 216
2 225 71
2 86 206
2 158 88
2 89 88
2 212 89
2 214 218
2 90 91
2 91 211
2 91 92
2 92 93
2 93 210
2 189 93
2 94 95
2 95 78
2 96 1
2 96 97
2 97 6
2 97 98
2 16 98
2 179 99
2 99 30
2 31 100
2 187 101
2 101 48
2 101 102
2 102 64
2 102 103
2 103 80
2 81 104
2 104 105
2 83 105
2 105 190
2 85 106
2 217 120
2 87 107
2 88 108
2 219 122
2 109 90
2 109 110
2 92 110
2 110 188
2 111 94
2 95 112
2 112 113
2 113 79
2 113 114
2 63 114
2 114 194
2 115 46
2 116 47
2 116 172
2 117 29
2 169 118
2 118 15
2 157 119
2 0 119
2 119 180
2 99 100
2 103 104
2 159 108
2 111 112
2 183 116
2 120 204
2 121 224
2 120 121
2 122 220
2 150 123
2 123 122
2 124 11
2 125 21
2 124 125
2 41 126
2 127 25
2 126 127
2 34 128
2 129 51
2 128 129
2 203 130
2 131 39
2 130 131
2 39 132
2 133 58
2 132 133
2 134 66
2 135 68
2 134 135
2 136 135
2 137 70
2 136 137
2 207 138
2 130 139
2 139 138
2 140 73
2 75 141
2 231 140
2 142 141
2 143 77
2 142 143
2 144 10
2 145 12
2 144 145
2 146 33
2 147 18
2 146 147
2 148 34
2 149 35
2 148 149
2 150 221
2 151 74
2 151 150
2 152 149
2 153 22
2 152 153
2 94 154
2 155 78
2 154 155
2 156 15
2 157 118
2 156 157
2 87 223
2 107 222
2 159 158
2 181 160
2 161 3
2 160 161
2 162 54
2 163 174
2 162 163
2 164 121
2 71 165
2 165 164
2 158 166
2 202 167
2 166 228
2 168 29
2 169 117
2 168 169
2 44 170
2 171 182
2 170 171
2 172 117
2 173 28
2 172 173
2 174 38
2 175 132
2 174 175
2 176 82
2 177 66
2 176 177
2 178 16
2 179 98
2 178 179
2 180 96
2 181 1
2 180 181
2 182 46
2 183 115
2 182 183
2 61 184
2 185 63
2 184 185
2 186 32
2 187 100
2 186 187
2 188 111
2 189 154
2 188 189
2 190 106
2 191 84
2 190 191
2 192 42
2 193 170
2 192 193
2 194 115
2 195 45
2 194 195
2 196 60
2 197 184
2 196 197
2 198 155
2 199 62
2 198 199
2 200 82
2 201 84
2 200 201
2 72 202
2 203 56
2 202 203
2 204 107
2 205 86
2 204 205
2 206 87
2 167 207
2 229 206
2 208 201
2 209 85
2 208 209
2 210 76
2 227 74
2 210 211
2 72 212
2 213 167
2 212 213
2 123 214
2 215 230
2 214 215
2 216 209
2 217 106
2 216 217
2 218 89
2 219 108
2 218 219
2 220 109
2 221 226
2 220 221
2 222 159
2 223 166
2 222 223
2 224 205
2 225 86
2 224 225
2 226 90
2 227 211
2 226 227
2 228 213
2 229 207
2 228 229
2 230 151
2 231 141
2 230 231

CELL_TYPES 348
3
3
3
3
3
3
3
3
3
3
3
3
3
3
3
3
3
3
3
3
3
3
3
3
3
3
3
3
3
3
3
3
3
3
3
3
3
3
3
3
3
3
3
3
3
3
3
3
3
3
3
3
3
3
3
3
3
3
3
3
3
3
3
3
3
3
3
3
3
3
3
3
3
3
3
3
3
3
3
3
3
3
3
3
3
3
3
3
3
3
3
3
3
3
3
3
3
3
3
3
3
3
3
3
3
3
3
3
3
3
3
3
3
3
3
3
3
3
3
3
3
3
3
3
3
3
3
3
3
3
3
3
3
3
3
3
3
3
3
3
3
3
3
3
3
3
3
3
3
3
3
3
3
3
3
3
3
3
3
3
3
3
3
3
3
3
3
3
3
3
3
3
3
3
3
3
3
3
3
3
3
3
3
3
3
3
3
3
3
3
3
3
3
3
3
3
3
3
3
3
3
3
3
3
3
3
3
3
3
3
3
3
3
3
3
3
3
3
3
3
3
3
3
3
3
3
3
3
3
3
3
3
3
3
3
3
3
3
3
3
3
3
3
3
3
3
3
3
3
3
3
3
3
3
3
3
3
3
3
3
3
3
3
3
3
3
3
3
3
3
3
3
3
3
3
3
3
3
3
3
3
3
3
3
3
3
3
3
3
3
3
3
3
3
3
3
3
3
3
3
3
3
3
3
3
3
3
3
3
3
3
3
3
3
3
3
3
3
3
3
3
3
3
3
3
3
3
3
3
3
3
3
3
3
3
3
3
3
3
3
3
3
3
3
3
3
3
3

CELL_DATA 348
SCALARS current_Length float
LOOKUP_TABLE default
1.04952
0.915221
1.35737
1.59401
1.49911
1.52621
0.739113
1.06713
1.50493
1.30742
0.862875
1.32136
1.96848
1.41682
0.206683
0.369262
1.37346
0.934974
0.149552
0.617754
0.577567
0.477751
0.429243
0.697704
1.04351
1.34197
0.862548
1.02489
1.21082
1.82355
0.276922
0.907099
1.56236
0.666473
1.48553
0.801638
0.750782
0.886226
1.14868
1.29132
1.22764
0.801832
2.13951
0.00351951
1.52265
1.47578
1.20604
1.0746
0.739875
0.863454
0.570492
0.648218
1.13301
1.44587
1.41957
1.3003
1.22231
1.0724
1.30895
1.45048
0.815277
0.653648
0.987313
0.836003
0.747389
0.486175
1.32532
2.14766
1.54263
1.57346
0.804534
0.947626
1.32183
1.2331
0.931567
0.997888
1.01132
1.48447
0.731029
1.19942
0.839602
1.50912
0.530821
0.569745
0.824931
0.512138
1.10229
0.352102
1.47087
0.00250466
1.65812
1.31474
0.956562
1.29966
0.978662
0.939295
0.58989
1.16064
0.620459
1.09283
0.580447
1.22938
0.60835
1.67453
0.737044
0.938806
1.06778
0.792084
0.757678
1.35979
1.4625
0.840367
0.848314
0.879338
1.47501
1.01523
1.19004
0.601327
0.928154
0.00560623
1.1636
0.800434
1.12763
0.377129
1.22786
1.65653
0.740618
1.6657
1.75531
0.029834
1.4582
0.846407
1.87458
1.50744
2.22973
1.17827
2.38351
1.39203
1.90404
1.94793
1.68482
2.6896
0.757291
2.56521
1.54665
1.69317
1.80904
1.25371
1.82086
2.32836
1.5905
1.38137
2.06444
2.12183
1.5718
1.40142
2.09374
1.62711
1.74451
1.73561
1.75391
1.68228
2.12679
1.40232
2.22806
1.22725
2.18705
2.29128
1.87134
2.47734
0.87517
2.49355
1.56541
1.77521
1.76262
2.13523
2.34289
2.01967
2.33792
1.3024
1.97169
0.224475
2.11103
1.7699
0.933351
1.7843
1.15513
1.44627
1.6284
0.640185
0.785208
1.74578
1.50941
1.04183
1.07922
0.919951
1.1054
1.34309
1.62334
1.55176
1.2896
0.984137
1.01892
2.13127
0.763672
1.22573
1.58281
0.709314
1.51153
0.920537
1.48454
0.557557
1.12825
1.57969
1.39678
0.99379
0.368155
1.54771
1.9236
1.34155
1.69048
2.15812
1.04562
1.01631
1.9792
0.801389
0.976763
1.94804
0.223772
1.08661
1.65142
1.21488
1.80862
1.64537
0.88005
1.78929
2.44195
1.24672
2.18014
2.0364
0.685853
1.23224
1.24076
1.18944
1.0805
1.69169
0.982521
1.01394
2.17352
0.699884
1.0177
1.00315
0.863651
1.7821
2.50175
1.29995
1.03851
1.10948
1.03208
0.99706
2.31459
1.68746
0.877079
1.13495
0.567124
0.615147
1.85313
0.971193
1.83486
2.314
2.22305
1.35151
1.82526
1.09045
2.01278
2.07748
1.33318
1.0694
1.41183
0.532429
1.25501
2.55263
1.57414
0.445257
2.44505
1.95082
0.67008
1.68127
1.03672
0.888378
1.27592
1.22061
0.790491
2.51109
1.17945
1.18164
1.75493
0.611025
1.70099
1.37929
1.43922
1.34789
0.995661
1.70836
1.43897
0.603282
1.30845
1.8544
1.37849
0.984944
1.20641
1.03206
1.32343
1.42915
1.59285
0.863921
0.906896
1.19102
1.53871
1.74618
1.00137
1.30384
0.91339
2.03775
0.307537
1.70516
2.32905
0.859632
1.29722
2.30739
2.0009
0.648139
1.82202
1.56438
1.04828
1.83341
1.63191
1.7116
1.99164
1.25092
0.991703
1.82578
0.916415
1.65649
1.46389
0
0
0

SCALARS edge_force float
LOOKUP_TABLE default
0.5
0.5
0.5
0.5
0.5
0.5
0.5
0.5
0.5
0.5
0.5
0.5
0.5
0.5
0.5
0.5
0.5
0.5
0.5
0.5
0.5
0.5
0.5
0.5
0.5
0.5
0.5
0.5
0.5
0.5
0.5
0.5
0.5
0.5
0.5
0.5
0.5
0.5
0.5
0.5
0.5
0.5
0.5
0.5
0.5
0.5
0.5
0.5
0.5
0.5
0.5
0.5
0.5
0.5
0.5
0.5
0.5
0.5
0.5
0.5
0.5
0.5
0.5
0.5
0.5
0.5
0.5
0.5
0.5
0.5
0.5
0.5
0.5
0.5
0.5
0.5
0.5
0.5
0.5
0.5
0.5
0.5
0.5
0.5
0.5
0.5
0.5
0.5
0.5
0.5
0.5
0.5
0.5
0.5
0.5
0.5
0.5
0.5
0.5
0.5
0.5
0.5
0.5
0.5
0.5
0.5
0.5
0.5
0.5
0.5
0.5
0.5
0.5
0.5
0.5
0.5
0.5
0.5
0.5
0.5
0.5
0.5
0.5
0.5
0.5
0.5
0.5
0.5
0.5
0.5
0.5
0.5
0.5
2
0.5
2
0.5
2
0.5
0.5
2
0.5
2
0.5
2
0.5
0.5
2
0.5
2
0.5
2
0.5
0.5
2
0.5
2
0.5
2
0.5
0.5
2
0.5
2
0.5
2
0.5
0.5
2
0.5
2
0.5
2
0.5
2
2
2
2
2
2
2
0.5
0.5
2
0.5
0.5
0.5
0.5
0.5
0.5
0.5
0.5
0.5
0.5
0.5
0.5
0.5
0.5
0.5
0.5
0.5
0.5
0.5
0.5
0.5
0.5
0.5
0.5
0.5
0.5
0.5
0.5
0.5
0.5
0.5
0.5
0.5
0.5
0.5
0.5
0.5
0.5
0.5
0.5
0.5
0.5
0.5
0.5
0.5
0.5
0.5
0.5
0.5
0.5
0.5
2
0.5
0.5
2
0.5
0.5
0.5
0.5
0.5
0.5
0.5
0.5
0.5
0.5
0.5
0.5
0.5
0.5
2
0.5
0.5
0.5
0.5
2
0.5
0.5
0.5
0.5
0.5
0.5
0.5
0.5
0.5
2
0.5
2
0.5
0.5
0.5
2
0.5
0.5
0.5
0.5
0.5
2
0.5
2
0.5
0.5
2
0.5
0.5
0.5
0.5
0.5
2
0.5
0.5
0.5
0.5
0.5
0.5
0.5
0.5
0.5
0.5
0.5
0.5
0.5
0.5
2
0.5
0.5
0.5
0.5
0.5
0.5
0.5
0.5
0.5
0.5
0.5
0.5
0.5
0.5
0.5
0.5
0.5
0.5
2
0.5
0.5
2
0.5
2
0.5
0.5
2
0.5
0.5
0.5
0.5
0.5
0.5
0.5
0.5
0.5
0.5
0.5
0
0
0
