# vtk DataFile Version 2.0
2D-vertex
ASCII
DATASET UNSTRUCTURED_GRID
POINTS 700 float
0.276635 -3.26656 0
2.72464 -3.11937 0
3.13736 -2.17867 0
2.13694 -1.0843 0
-0.124177 -0.884333 0
-0.876524 -2.35962 0
3.66391 -2.15804 0
4.2589 -1.31908 0
3.36507 0.221737 0
2.31075 -0.065983 0
1.16779 1.221 0
-0.510469 1.73736 0
-1.30366 0.478759 0
-1.4611 0.443341 0
-2.01387 -1.21719 0
-1.52229 -2.11435 0
4.82725 -1.49179 0
5.65949 -0.634598 0
3.86522 0.952795 0
3.5918 0.892789 0
2.73993 1.87489 0
1.67035 1.81477 0
1.11025 5.43566 0
0.231391 5.42945 0
-0.619936 3.58111 0
-1.85729 2.70217 0
-1.81066 0.798828 0
-3.10861 0.532393 0
-3.6414 -0.493393 0
-3.35309 -1.21051 0
6.7279 -0.65184 0
7.36677 0.0521139 0
7.22656 1.3704 0
5.03973 2.60328 0
5.52379 3.17032 0
3.21164 4.5604 0
2.48863 5.85095 0
1.58775 6.03207 0
0.704313 9.16784 0
-0.912671 9.23787 0
-0.628049 6.2588 0
-2.16866 5.35182 0
-3.23596 3.83542 0
-4.19946 3.88401 0
-4.95579 2.4874 0
-6.37154 2.1982 0
-6.6741 1.13421 0
-5.18267 -0.237098 0
7.66344 1.98071 0
7.34829 3.03444 0
6.60833 3.47659 0
5.93597 5.55183 0
3.61324 6.8019 0
3.56346 7.64666 0
2.13882 9.26248 0
2.69131 9.96 0
-1.89402 10.5854 0
-1.81869 9.73906 0
-3.05561 8.45031 0
-2.75276 6.32699 0
-4.40229 6.66446 0
-5.79197 5.36808 0
-7.73024 3.90116 0
-7.59222 3.36876 0
8.27983 3.41884 0
8.27985 3.42134 0
6.85824 5.50438 0
7.3247 6.69148 0
6.10707 7.99233 0
6.33768 8.66207 0
5.61326 9.67904 0
5.39299 10.1314 0
-2.64972 12.8586 0
-2.87815 12.5849 0
-6.13478 9.81559 0
-5.4584 9.00671 0
-6.17916 7.66561 0
-6.09318 7.49279 0
-8.71483 4.41266 0
-8.56771 4.06244 0
9.825 3.68166 0
10.1694 4.6231 0
9.3949 5.63085 0
10.5806 6.02066 0
10.3289 7.5495 0
10.5437 8.25866 0
9.91881 12.9525 0
10.9714 15.0749 0
-9.82986 14.9404 0
-9.81641 14.8941 0
-10.1204 9.00369 0
-9.8234 8.47832 0
-10.1624 7.84952 0
-9.42038 6.75118 0
-10.2329 5.50062 0
-9.77629 4.52309 0
3.61491 -4.99312 0
4.82406 -4.46278 0
5.66187 -4.07125 0
8.03222 -2.51422 0
9.3452 -1.09974 0
10.7135 1.21079 0
10.805 1.37096 0
11.5233 2.42422 0
12.3495 4.33407 0
12.5756 5.10889 0
12.8441 8.62092 0
13.5448 15.4324 0
-13.3393 15.3878 0
-12.7223 8.95317 0
-12.6322 7.67954 0
-12.2539 5.1457 0
-11.38 3.20886 0
-10.5228 2.11309 0
-9.92346 1.39605 0
-9.0299 0.0816061 0
-7.11509 -2.05825 0
-5.05608 -3.46636 0
-2.97007 -4.47269 0
0.0197278 -5.31541 0
12.7422 10.1701 0
8.73179 10.4043 0
-13.0131 11.4408 0
-10.1567 12.2625 0
-0.376164 3.244 0
0.928147 3.32527 0
-1.89254 5.31381 0
-1.16857 3.58023 0
4.48209 4.73791 0
4.90302 5.65321 0
0.40838 10.7264 0
0.18043 9.67423 0
-1.13906 7.59556 0
-2.34874 7.31223 0
5.93507 5.55415 0
5.15132 7.53064 0
4.18274 8.05037 0
4.20897 9.36426 0
2.22124 10.9295 0
2.21916 10.9281 0
-2.45489 10.8541 0
-4.00607 9.17881 0
-3.56212 8.47335 0
-4.52201 7.24583 0
1.27768 0.576525 0
-0.184717 -0.40009 0
6.40572 1.63187 0
5.28863 0.112348 0
5.03774 2.60479 0
3.02734 3.44817 0
-9.00881 10.6191 0
-5.94921 10.4879 0
3.02485 3.44825 0
1.59741 4.14773 0
-9.4303 6.69519 0
-8.01647 6.08336 0
-0.906581 -2.37457 0
-1.34942 -5.0612 0
11.5876 34.3796 0
13.2205 35.3874 0
1.08998 -2.93386 0
1.21726 -1.47736 0
2.54253 8.05093 0
1.3489 7.03229 0
8.54047 9.91909 0
5.61371 9.68151 0
9.62688 20.7457 0
0.135006 12.5725 0
-2.80121 -1.47052 0
-3.53408 -4.22877 0
-4.39452 1.56378 0
-5.30013 0.386372 0
-5.69351 -3.08492 0
-4.60096 -0.634304 0
0.408508 7.52594 0
-0.528936 7.09805 0
9.36114 5.49056 0
7.74814 4.73325 0
5.46604 -1.1642 0
7.15977 -3.18888 0
1.56889 -5.40239 0
1.62893 -3.37256 0
-6.24858 0.51459 0
-7.86105 -1.36294 0
-5.40116 4.27036 0
-6.73318 3.03734 0
7.4925 1.49639 0
9.93091 -0.230021 0
-12.5039 6.52891 0
-9.44163 6.71628 0
12.9134 7.14146 0
10.8096 7.02127 0
-2.82131 2.89513 0
-3.74559 1.54704 0
-9.50935 0.832669 0
-6.72423 2.46737 0
-3.591 6.14237 0
-4.3628 4.1807 0
-6.84361 6.26557 0
-6.42661 5.46355 0
8.31676 6.83762 0
8.54018 7.32398 0
-0.825354 12.4313 0
-0.647216 11.4337 0
12.7468 10.179 0
10.1642 11.5288 0
10.1075 13.8671 0
1.9729 11.4057 0
7.97574 8.58009 0
9.24467 9.28531 0
-7.33595 7.77154 0
-7.6769 8.53205 0
-2.30442 14.674 0
0.854821 13.8306 0
-10.0872 12.7715 0
-4.15222 12.4595 0
9.24347 9.28752 0
12.7486 9.67143 0
-10.8772 13.9611 0
-13.3935 14.3813 0
-12.779 9.93743 0
-9.26017 10.1982 0
13.1118 18.2017 0
10.4647 16.6663 0
8.41752 10.8487 0
6.29764 11.0581 0
-9.26018 10.1957 0
-7.36282 9.4852 0
2.40972 14.3421 0
4.16968 12.744 0
-4.47056 10.9363 0
-3.67724 10.2333 0
4.9233 12.4924 0
3.98403 10.9908 0
13.1407 11.871 0
10.3909 12.0816 0
-2.9292 14.2739 0
-4.64513 13.4138 0
-12.3138 28.3494 0
0.0689433 15.3471 0
-6.56229 11.0648 0
-4.52794 12.7201 0
-12.8606 10.6502 0
-9.48276 11.2427 0
6.27684 16.4503 0
8.32909 14.7059 0
-1.0656 14.1339 0
-0.633894 12.6413 0
-10.6608 18.2583 0
-13.6363 17.5689 0
8.6167 37.8822 0
2.35631 15.3564 0
-3.13714 16.761 0
-10.5645 18.6519 0
-10.8322 13.2578 0
-13.2461 12.4872 0
-6.71807 14.8128 0
-6.17378 13.6694 0
-6.44101 11.7515 0
-7.30388 12.7172 0
13.4283 13.602 0
10.9 14.4043 0
-11.3302 19.9647 0
-14.0533 20.3515 0
6.09386 12.1292 0
4.92462 12.4902 0
10.3568 15.7504 0
8.40266 15.3441 0
4.00968 13.8089 0
6.8039 15.9389 0
-2.11051 15.9557 0
-0.471902 16.2791 0
14.3582 21.863 0
11.8077 22.431 0
0.324895 15.2965 0
1.34806 16.039 0
12.2938 24.381 0
4.10383 15.931 0
13.2668 12.7256 0
10.2313 13.3289 0
-8.55936 14.3537 0
-8.6044 13.4872 0
-9.3854 11.5605 0
-7.31138 12.3581 0
-10.2309 17.7922 0
-6.38207 16.4756 0
5.88211 39.8016 0
6.19711 41.6492 0
1.77902 13.7029 0
2.53647 12.1944 0
-4.00415 15.8764 0
-3.95818 14.8334 0
-13.4692 16.6678 0
-10.4579 17.1708 0
-0.069645 17.6778 0
-0.27034 17.5547 0
7.80702 13.066 0
7.40765 13.939 0
8.67694 11.3792 0
7.65284 12.7579 0
-11.3498 19.2855 0
-13.8498 18.5611 0
-2.65949 16.7359 0
-1.70501 18.0679 0
1.63679 17.0555 0
3.46962 17.0372 0
6.37979 14.1019 0
6.14865 14.6057 0
-7.6837 17.9082 0
-7.48174 18.2499 0
-9.3237 15.6035 0
-6.59194 15.763 0
4.07501 15.8667 0
4.77478 14.6977 0
-10.721 21.8536 0
-3.9338 18.1051 0
14.7266 23.2009 0
12.6286 23.6064 0
-15.0011 28.2977 0
-12.9834 27.7905 0
8.78728 17.1921 0
7.79928 16.0724 0
13.1545 19.0466 0
9.83072 19.9432 0
4.33116 18.2775 0
6.23508 19.0402 0
1.44969 19.4189 0
3.69469 18.714 0
-0.69638 24.9764 0
-3.41141 23.9061 0
-3.21063 22.2432 0
-4.63214 19.9389 0
-6.35972 15.4295 0
-4.14708 14.7342 0
-9.96811 20.6001 0
-8.46833 19.3598 0
8.01396 23.6985 0
7.59857 20.8551 0
-13.352 15.8072 0
-9.70624 16.1965 0
-9.68705 16.2424 0
-7.47413 17.1594 0
-0.0495071 19.594 0
0.172492 19.3197 0
11.6427 33.4354 0
2.37571 22.556 0
15.2579 30.613 0
13.4914 30.1233 0
-14.7667 22.8749 0
-12.2275 23.0177 0
-5.52766 16.7892 0
-5.31475 17.8374 0
8.36593 17.8933 0
7.15042 17.8054 0
1.49909 17.274 0
2.08583 18.3419 0
10.6304 16.2599 0
13.4715 16.4204 0
13.0472 18.4962 0
8.79718 17.4891 0
-11.6721 23.8678 0
-4.60731 20.1105 0
-2.10818 18.9707 0
-3.60539 18.8996 0
3.97872 23.0718 0
4.62544 22.4663 0
-5.98028 18.4927 0
-5.79755 19.4698 0
4.34042 17.888 0
6.30665 16.9429 0
-1.84064 21.9752 0
-0.135223 23.19 0
2.134 28.2727 0
10.3095 32.4384 0
-5.85152 38.9996 0
-6.91813 40.3709 0
-0.506757 39.6447 0
-2.37263 24.5855 0
-14.2937 21.0699 0
-12.0117 22.3377 0
-1.76663 19.507 0
-3.64012 20.6427 0
-7.58692 21.3092 0
-6.03628 21.3988 0
12.6385 28.3437 0
10.6446 30.8549 0
5.34124 20.9557 0
7.04285 21.4508 0
11.7671 22.5211 0
8.9197 22.7545 0
13.6424 20.1972 0
11.4889 21.8195 0
-12.7339 26.6515 0
-3.76872 21.792 0
15.3997 28.4192 0
13.4588 28.8187 0
2.59784 20.5324 0
3.82667 19.7664 0
-15.1163 24.8336 0
-12.957 25.4348 0
-1.43582 26.5988 0
4.25177 24.2128 0
0.410856 20.8122 0
2.15279 21.3097 0
-8.45751 19.4262 0
-7.13857 20.2109 0
8.91431 18.9817 0
7.32547 19.7091 0
-1.42999 21.1915 0
-2.1038 20.2132 0
13.0453 18.5061 0
8.94095 18.9092 0
-2.45095 24.327 0
-1.28955 22.9961 0
-5.90137 21.8792 0
-4.87258 22.3291 0
-4.45764 24.3079 0
-5.04624 23.7325 0
-14.0572 20.3607 0
-10.7055 21.528 0
5.67375 24.442 0
6.38997 23.4341 0
0.13151 29.3907 0
2.15019 39.9774 0
-8.30521 22.3902 0
-7.84552 23.4015 0
1.40653 40.2338 0
1.20661 42.347 0
-9.00109 29.1873 0
-7.11735 30.8219 0
10.127 21.3755 0
8.83545 22.341 0
15.0143 24.5391 0
12.7301 24.9509 0
6.18646 22.8643 0
7.1511 21.8364 0
2.61304 20.9688 0
4.46542 21.7274 0
3.61004 24.7454 0
4.94264 28.5191 0
5.21514 20.3187 0
6.30887 19.3481 0
1.94758 22.9359 0
2.16345 24.1347 0
13.337 19.5717 0
10.1227 21.1125 0
-3.33898 35.4467 0
-3.11626 31.8 0
-12.3444 30.4085 0
-14.3194 31.0305 0
0.0221833 21.28 0
0.466412 22.5291 0
-7.23252 23.4637 0
-6.84907 24.099 0
-9.90655 21.0114 0
-7.58681 21.3067 0
8.87292 26.3164 0
10.0858 24.7288 0
-15.2128 26.8129 0
-13.0117 26.4093 0
-7.19373 25.0263 0
-6.98837 26.6703 0
3.53221 33.2067 0
7.44846 32.1769 0
-11.3371 32.5959 0
-8.32475 30.6069 0
8.5951 26.7966 0
5.67082 27.4637 0
2.54234 27.9287 0
1.61928 25.916 0
-4.49825 26.075 0
-4.42442 26.1018 0
7.21889 39.2969 0
8.25256 40.7154 0
0.142582 24.1566 0
1.52342 24.6366 0
-9.26719 24.5281 0
-9.32869 25.0927 0
4.55284 35.5063 0
2.57633 38.6407 0
-2.98301 25.5148 0
-2.31743 26.548 0
13.0684 30.4509 0
11.3434 29.9239 0
-2.97493 40.4103 0
-3.11812 42.0809 0
-4.72244 39.2358 0
-4.51481 35.5215 0
10.4007 24.3186 0
10.1308 23.1962 0
-9.86475 27.4331 0
-8.76056 25.5301 0
12.5617 27.5072 0
10.4676 26.3362 0
-1.71446 35.8199 0
-0.122202 31.4708 0
-9.90218 22.5552 0
-10.2437 23.7142 0
14.7291 32.3697 0
13.2023 31.7148 0
15.2375 25.7497 0
13.0142 26.2842 0
10.308 36.0622 0
8.74037 34.9197 0
-1.00442 29.3729 0
-0.921067 27.6062 0
-8.25316 36.8665 0
-9.51768 38.1736 0
3.61899 25.7056 0
2.41141 26.3556 0
6.86832 30.8611 0
7.0197 27.5339 0
6.15519 25.1375 0
5.0407 25.9513 0
-5.15743 29.3939 0
-4.29355 29.8971 0
8.37948 24.5686 0
8.11774 24.9725 0
5.29302 30.4608 0
4.95564 33.362 0
-12.0517 30.6901 0
-9.7251 29.1841 0
10.2133 37.5342 0
11.1238 38.3479 0
-8.07967 28.2448 0
-5.22487 28.751 0
-7.3647 37.0881 0
-6.62458 35.1434 0
2.79642 32.7764 0
1.7691 33.3587 0
-14.6954 29.6696 0
-12.4346 29.0156 0
-13.6799 32.7255 0
-12.2773 32.0608 0
-0.44735 37.5823 0
0.855467 37.5609 0
0.962341 28.0555 0
[...]
CELL_DATA 351
SCALARS cell_division_count float
LOOKUP_TABLE default
1
0
1
0
0
0
1
0
0
1
1
1
1
1
1
1
0
1
1
1
1
1
1
0
1
1
1
1
1
1
1
1
2
4
3
1
1
0
0
1
1
0
0
0
1
2
3
0
1
0
0
1
1
1
1
1
0
0
3
0
1
2
3
1
1
1
1
1
1
1
2
2
1
1
1
1
2
1
1
1
3
1
1
2
9
1
1
1
1
1
1
1
1
1
1
1
1
1
1
1
1
1
2
3
5
2
1
3
5
2
2
2
5
3
2
4
2
3
5
5
6
3
3
6
3
4
6
9
3
5
4
4
8
5
6
6
5
4
5
14
5
5
5
7
5
4
6
4
10
5
3
4
6
6
6
7
6
6
11
7
8
7
6
7
8
13
11
6
8
9
4
7
8
12
6
7
7
8
8
3
6
12
10
11
9
7
11
13
9
13
8
11
10
11
9
9
5
14
6
10
8
13
10
10
8
11
6
10
11
14
8
11
13
11
8
12
9
8
9
11
13
9
11
6
15
12
11
12
11
13
8
13
13
12
15
14
10
7
12
13
12
11
12
10
14
9
14
15
13
12
7
9
13
15
9
14
14
14
13
13
12
12
7
12
14
13
8
9
14
14
13
13
14
14
13
9
14
14
14
12
14
14
14
8
15
9
9
14
13
13
13
12
12
10
12
12
13
15
7
13
13
15
10
14
14
14
8
13
14
12
13
14
15
14
13
13
15
15
12
15
13
9
11
13
14
14
13
13
13
12
9
7
10
13
13
14
15
13
15
13
13
14
15
12
14
14
14
13
10
8
14
SCALARS cell_time float
LOOKUP_TABLE default
1941
2.22229e+13
1961
4.48239e+13
2.67348e+11
1.25633e+10
1971
2.68224e+09
9.19769e+11
1961
1961
1951
1921
1971
1891
1931
1.22795e+06
1971
1941
1971
1971
1871
1911
25753.4
1971
1971
1971
1971
1971
1861
1921
1861
1821
1561
1711
1811
1951
1.00108e+18
2.94533e+15
1921
1911
107053
3315.76
2027.34
1901
1801
1601
2018.01
1911
4669.01
2286.18
1891
1931
1941
1951
1921
1.12104e+13
23136.3
1391
4007.96
1921
1841
1661
1971
1971
1971
1971
1971
1971
1971
1851
1731
1971
1961
1961
1961
1791
1951
1951
1951
1091
1941
1941
1801
721
1941
1931
1931
1921
1921
1921
1921
1921
1911
1911
1911
1901
1891
1891
1871
1861
1861
1851
1721
1541
1821
1811
1661
1441
1801
1801
1801
1091
1381
1791
1411
1731
1721
1451
1411
1301
1681
1661
1291
1661
1381
1391
1081
1601
1451
1581
1581
361
1391
1281
1311
1511
1291
1481
311
1451
1451
1441
1141
571
1411
1181
1161
811
1391
1381
1381
1381
1371
1311
1111
1301
1291
651
721
641
1101
691
1031
1101
141
781
1181
1171
721
1161
1141
1141
201
501
971
1111
831
1101
1091
821
511
961
721
1041
1031
661
451
141
121
781
831
951
541
721
521
921
311
901
901
301
321
871
841
831
831
821
811
791
331
781
771
51
761
291
211
721
501
721
721
441
721
711
691
51
21
661
661
651
431
641
191
181
151
151
351
581
101
561
551
111
551
171
101
31
521
311
161
1
511
201
291
131
191
191
191
191
191
261
431
251
251
191
211
161
41
361
361
21
351
171
131
331
131
321
321
321
311
311
131
311
71
311
301
171
111
291
171
171
261
91
251
241
231
211
211
121
61
201
201
191
191
1
191
191
191
1
181
21
171
91
1
171
171
171
161
161
31
151
151
141
141
141
131
11
131
51
121
121
111
111
101
101
91
91
71
61
51
51
51
41
31
31
21
21
21
11
1
1
1
1
SCALARS cell_area float
LOOKUP_TABLE default
3.24188
3.30006
3.29355
3.35607
3.35138
3.34393
3.32745
3.37503
3.34881
3.28178
3.33706
3.28309
3.3869
3.31996
3.30629
3.33
3.39877
3.28969
3.34703
3.39723
3.3926
3.34038
3.33962
3.37269
3.35982
3.37724
3.43938
3.40394
3.39226
3.33014
3.24708
3.29808
3.3496
3.33387
3.44739
3.25048
3.34588
3.25233
3.2608
3.24832
3.23656
3.27778
3.26186
3.27851
3.22024
3.2856
3.25813
3.26338
3.25912
3.24799
3.26767
3.27318
3.21618
3.2568
3.24443
3.24189
3.20939
3.21716
3.27311
3.19612
3.24588
3.30729
3.27048
3.28091
3.338
3.28585
3.39898
3.3528
3.28127
3.35878
3.45147
3.35324
3.35795
3.2871
3.24862
3.27557
3.34246
3.35198
3.2316
3.22175
3.22441
3.25852
3.33595
3.33013
3.36587
3.22229
3.29676
3.25194
3.37129
3.28819
3.22421
3.2035
3.21573
3.3043
3.25118
3.24454
3.25897
3.32451
3.26283
3.30103
3.29018
3.26403
3.40114
3.23465
3.29735
3.24155
3.32951
3.38735
3.29246
3.27918
3.2612
3.27247
3.27899
3.29312
3.24681
3.31575
3.35761
3.40398
3.25815
3.42784
3.30128
3.35167
3.27291
3.34532
3.40577
3.26834
3.44146
3.39483
3.21836
3.28083
3.33532
3.21088
3.29059
3.37123
3.31949
3.3518
3.36462
3.27115
3.36619
3.30308
3.25308
3.28418
3.31675
3.27475
3.25484
3.34904
3.39778
3.27403
3.35079
3.31634
3.3019
3.24027
3.36969
3.35818
3.38547
3.38702
3.34053
3.30702
3.35333
3.28296
3.26587
3.41126
3.29497
3.31805
3.36456
3.35238
3.35363
3.32812
3.29748
3.35485
3.27577
3.32644
3.42652
3.31351
3.27982
3.23818
3.36019
3.37043
3.38374
3.24398
3.30071
3.31004
3.4256
3.37523
3.38766
3.31468
3.36983
3.37191
3.24059
3.31147
3.28481
3.39987
3.39575
3.28683
3.35295
3.2688
3.24461
3.29372
3.24492
3.33655
3.27107
3.30132
3.40859
3.3507
3.3033
3.37862
3.29449
3.32952
3.37428
3.35017
3.31338
3.37628
3.33225
3.3422
3.29967
3.30029
3.34303
3.28719
3.36299
3.36052
3.41921
3.34701
3.37961
3.28813
3.273
3.31402
3.38345
3.31496
3.29784
3.35226
3.22743
3.34137
3.38445
3.25241
3.31717
3.37342
3.40255
3.29744
3.36753
3.37358
3.29585
3.33967
3.26373
3.3149
3.2985
3.32768
3.37144
3.28501
3.30311
3.3105
3.29576
3.25868
3.25669
3.30831
3.30687
3.35324
3.27072
3.32566
3.35742
3.32366
3.28931
3.29332
3.30105
3.33169
3.30929
3.33012
3.28257
3.28616
3.29164
3.32026
3.30441
3.28153
3.3607
3.32207
3.3484
3.29445
3.32149
3.33344
3.35427
3.29239
3.2629
3.32673
3.32105
3.27389
3.31094
3.25413
3.31165
3.28614
3.28306
3.31025
3.29717
3.30132
3.31527
3.28952
3.35295
3.3341
3.3235
3.33328
3.30868
3.31957
3.30929
3.31778
3.31262
3.30882
3.30735
3.29514
3.31386
3.34665
3.34309
3.29835
3.30916
3.34382
3.26229
3.34555
3.32548
3.29896
3.3696
3.3305
3.30581
3.3082
3.32129
3.29151
3.29646
3.25029
3.27355
3.29473
3.26973
3.33612
3.3256
3.32297
3.31853
3.29476
3.31286
3.25866
3.34651
3.27544
3.27977
3.22898
3.30145
3.33732
3.29438
3.30726
3.27293
3.30677
3.27903
3.2728
3.33087
3
3.26403
317
29
SCALARS cell_perimeter float
LOOKUP_TABLE default
6.9306
6.94543
6.96298
7.20339
7.13224
6.82078
7.07404
7.64474
6.93965
6.92629
7.38982
7.00317
6.80323
7.23522
7.04461
6.79714
7.18252
6.96943
6.9335
7.03172
6.93364
7.26084
7.24296
7.57376
7.57844
6.94871
8.06701
7.07402
6.88656
7.06871
6.95249
7.04534
8.22689
7.02948
7.03596
7.34122
7.90617
7.52931
7.83871
7.64865
8.28662
8.68898
8.20861
7.77782
7.3876
9.50862
7.98149
7.67276
8.0678
7.67261
8.15216
8.47331
7.79639
8.08584
7.68098
7.22091
7.44357
7.39565
8.31948
7.3291
7.74153
9.57085
8.5821
7.03626
7.13849
7.23591
6.91732
7.06168
7.1694
6.87086
7.8787
7.04908
7.16028
7.07871
7.24087
7.21816
7.81657
7.25869
6.93658
7.8828
8.16192
6.79171
7.01429
7.92857
7.49709
7.9928
6.82609
7.99522
7.04951
7.0002
7.80719
7.31634
7.66505
7.12768
7.94555
7.98865
7.37222
6.94507
8.25057
7.18072
7.16922
6.94514
7.15536
8.0067
7.14973
7.02843
6.84726
7.2559
7.29568
8.568
8.5578
8.58929
9.78435
7.20955
7.25025
7.07254
6.92406
7.56055
8.19647
6.92437
7.68366
7.24197
8.94891
7.26387
7.24772
8.08632
7.06437
7.02679
7.68968
7.02081
7.2955
7.75926
7.41074
7.42317
7.21014
7.14609
7.05654
7.62205
6.88718
7.08867
8.14826
6.88962
7.58279
7.59103
7.31591
7.21683
7.4121
8.84442
7.10692
7.28141
7.25956
7.83463
7.07801
7.24567
6.87182
6.89766
8.00448
7.03018
7.60007
7.38825
7.35267
7.03889
9.00774
7.36582
7.0299
7.02963
6.97822
7.25996
7.38437
7.14858
9.16383
7.91853
7.11555
6.97617
7.13488
7.73321
7.05344
7.14327
7.33973
7.92598
10.2604
6.83057
7.25071
7.16638
6.91161
7.40184
6.88975
6.90413
7.32733
6.84032
8.61174
7.05512
7.62549
6.96245
6.9554
7.04813
7.81183
7.07479
7.31806
7.01035
7.89762
6.96517
7.35664
7.13417
7.11295
6.93807
9.52363
7.04605
7.03377
6.96237
9.17987
6.952
7.65996
7.1466
7.21024
6.9921
7.31467
7.46292
7.11658
7.19731
7.03179
7.15671
7.05181
8.65225
6.92825
7.251
7.12003
7.18822
7.38606
7.12222
7.43695
7.18924
7.0219
6.98437
7.0872
6.87955
7.08704
7.12318
6.92878
7.09224
6.96233
6.92168
7.12179
7.43439
6.83543
6.92652
6.82821
7.01389
6.9061
7.00988
7.10918
7.54825
6.9566
6.95968
7.10223
7.27446
7.00287
7.41084
6.83201
7.15206
7.21214
7.26532
7.18347
7.24489
6.81601
6.99965
7.38869
7.2297
7.08817
6.92884
6.9054
6.88286
6.8771
7.08696
6.95991
7.13625
6.99236
7.04869
7.1279
6.87061
7.23904
6.94976
6.89648
7.998
6.9445
7.31678
7.49005
7.11874
7.23805
7.03978
6.87332
7.43921
7.16838
7.09691
7.18542
6.82244
6.99137
6.80911
7.16435
7.15675
7.1536
6.81537
7.11909
7.20773
6.99142
7.1051
7.1595
7.12702
6.97904
7.25615
6.84542
6.9783
6.90013
7.10345
7.45685
6.94964
7.05201
7.41579
6.89192
6.99425
6.95673
7.09568
7.11225
6.9768
6.94033
7.05991
6.95844
6.95182
6.91033
7.04838
7.10697
7.23729
7.39119
7.01748
7.21512
6.93667
6.98053
7.20044
6.8199
6.94696
6.92106
6.903
7.21449
7.22574
6.95854
7.04265
6.89547
17
3.273
22
339
SCALARS cell_frequency_modifier float
LOOKUP_TABLE default
7.65656e+17
1.65564e+15
1.33792e+15
3.70622e+14
1.04633e+14
1.31098e+13
7.89715e+10
1.36028e+12
1.23178e+14
8.17724e+15
1.51625e+12
9.8385e+13
1.45655e+09
3.3731e+10
8.89949e+12
4.27699e+13
7.47535e+11
1.06229e+11
9.83184e+08
1.05136e+07
1.29708e+09
1.97449e+10
3.08505e+11
3.54728e+10
1.13419e+09
5.73807e+07
7.06683e+06
1.52184e+07
4.31993e+08
2.53295e+09
9.4509e+12
1.32024e+09
3.49193e+07
3.11865e+06
136757
5.48819e+10
9.69941e+08
7.51587e+18
2.03134e+18
2.72786e+17
2.03224e+15
3.21964e+14
1.08296e+14
2.70641e+12
5.06159e+11
3.66213e+09
1.56731e+08
2.69105e+10
1.63027e+11
2.97206e+13
9.12582e+13
3.12823e+14
2.15684e+17
2.03179e+18
1.32803e+19
10000
9.44564e+16
2.52732e+13
778535
6.87446e+12
3.80576e+16
1.32667e+07
5.26675e+08
2.88787e+14
9.68994e+10
5.97045e+12
7.24101e+06
1.00516e+08
3.11987e+11
8.32623e+07
1.18151e+06
2.18558e+06
1.39588e+08
5.66429e+14
1.4166e+15
2.7871e+13
1.09619e+07
2.44485e+10
1.87641e+12
9.54505e+18
1.37745e+06
1.06764e+18
1.83893e+08
1.18896e+07
109.738
1.65909e+18
2.8024e+13
3.58372e+17
9.56174e+07
9.43512e+10
1.33424e+18
10000
1.20829e+16
1.49557e+11
8.1136e+15
6.85257e+11
6.84469e+10
9.15658e+11
1.37432e+15
3.39051e+10
2.04543e+11
2.79415e+11
1.03647e+06
5.37224e+08
217790
3.50884e+10
1.04283e+08
88578.4
5.84556e+06
1.14476e+10
1.24034e+07
4.95826e+09
698230
1.59466e+07
9.82904e+09
427209
1.3271e+07
906006
1.31834e+08
14548.1
5079.69
1.8951e+06
1.61592e+09
23532.3
139322
322309
5437.17
1644.82
4.55401e+07
3.31096e+07
571641
1.35722e+07
16.8539
291063
19206.2
150880
25182.7
11637.4
42836.5
36.8188
4.24046e+07
3.38699e+07
4.01398e+06
971674
136.452
490271
13777.9
2.17315e+06
21.4925
306952
2.49903e+06
128292
4783.19
10180.9
31047.8
2351.07
40331.1
124877
95.331
4695.72
913.857
3764.48
2122.96
3640.04
1253.83
0.450887
37.3058
103402
2464.99
43.006
4.98757e+06
16188.5
788.678
1.08422
219.998
15310.2
4350.07
842.895
1921.8
4.06806e+06
5982.98
99.0368
316.321
64.1136
772.26
11669.1
59.7655
8.52531
151.792
1.02899
29111.9
190.634
179.932
64.0701
254.769
6533.22
26113.9
59.4964
358.742
782.499
3536.2
16.2164
209.725
740.038
1071.64
103.161
5502.18
54.1304
104.461
6.66906
456.096
24.7357
1.01542
75.8228
2.60668
5.66567
72.6494
257.919
77.6822
188.2
7.50848
746.521
21.5357
4655.42
114.032
0.827361
67.8453
72.2842
1102.49
16.9969
1753.01
17.1311
1.14107
198.604
5.25682
3.14205
8.54848
2.32336
23.7401
13.3039
2.5398
10.0133
222.294
1.21389
1.82641
33.5376
4.97429
609.458
1.40313
72.7646
3.60946
1141.19
100.008
2.36978
1.27944
3.80902
311.864
10.996
1.77345
14.1993
15.048
11.8271
1.48018
4.68788
0.981204
0.698603
495.575
48.2115
4.6695
3.77783
1.27384
118.876
2.25218
1.15484
10.9401
4.64073
6.14309
6.6588
14.6701
5.32268
888.585
0.852287
5.20789
6664.88
1.81905
164.872
5.71745
56.4228
171.385
10.4433
2.77018
7.6977
3.01357
9.83757
1.38775
3.78428
0.94702
0.804387
1.22239
1.79942
15.0213
2.70736
0.905917
8.95987
5.85407
30.0242
0.876121
1.77869
0.554836
2.99931
1.00927
0.557679
216.606
0.863301
1.18384
1.80536
1.2654
0.659872
3.18914
3.7914
0.775908
6.38758
2.57426
102.09
102.714
6.733
108.166
0.526458
0.688485
0.67553
1.02176
2.84772
1.30246
115.41
0.46059
200.568
120.848
231.287
1.95477
0.514526
3.25357
1.10641
123.778
1.1948
106.876
156.304
0.567122
1
1
1
1
SCALARS cell_area_modifier float
LOOKUP_TABLE default
100
1.61772
3.48744
0.392312
0.42866
0.47243
0.614703
0.338702
0.445157
100
0.518297
100
0.322941
0.708887
1.17827
0.588634
0.308582
6.36697
0.450942
0.31135
0.315598
0.49964
0.506939
0.345445
0.379442
0.333814
0.290498
0.30187
0.31704
0.574028
100
1.83113
0.439519
0.542611
0.288086
100
0.462975
100
100
100
100
100
100
100
100
100
100
100
100
100
100
100
100
100
100
100
100
100
100
100
100
1.08607
100
100
0.51067
77.1111
0.307216
0.413341
100
0.381528
0.286895
0.406085
0.38577
14.1633
100
100
0.485654
0.420861
100
100
100
100
0.530176
0.578816
0.365456
100
2.17555
100
0.350682
8.78481
100
100
100
1.2415
100
100
100
0.649205
100
1.51198
5.83193
100
0.30452
100
2.0472
100
0.598792
0.319963
4.10651
100
100
100
100
3.87709
100
0.780652
0.387926
0.300563
100
0.291719
1.44885
0.426028
100
0.469236
0.299267
100
0.289287
0.314169
100
100
0.534257
100
5.37984
0.352463
0.72367
0.423429
0.36739
100
0.363541
1.31191
100
100
0.763476
100
100
0.44232
0.30996
100
0.431324
0.771969
1.33719
100
0.357916
0.383637
0.324451
0.321445
0.496069
1.12116
0.401388
100
100
0.296708
2.57993
0.739084
0.369345
0.415818
0.39908
0.604003
1.93315
0.394542
100
0.625789
0.292951
0.847375
100
100
0.377379
0.354262
0.327513
100
1.54566
0.951989
0.294192
0.337057
0.318495
0.817432
0.35608
0.347174
100
0.902471
100
0.305862
0.312753
17.7949
0.410894
100
100
3.32057
100
0.522197
100
1.41922
0.297982
0.434021
1.26412
0.332216
2.90377
0.59367
0.340363
0.436753
0.857849
0.335428
0.555645
0.489077
1.65632
1.58087
0.482279
11.7627
0.371322
0.375338
0.295445
0.453891
0.330634
10.058
100
0.827175
0.329066
0.798619
1.88076
0.418324
100
0.492548
0.325975
100
0.755169
0.343735
0.303189
1.98854
0.361647
0.34204
2.32107
0.503263
100
0.807916
1.73935
0.609306
0.348919
100
1.28757
0.926569
2.40138
100
100
1.03737
1.13957
0.403723
100
0.631483
0.390107
0.655335
7.79775
3.67196
1.47974
0.560129
0.965229
0.583684
100
23.931
4.65772
0.701719
1.21968
100
0.373319
0.674441
0.448031
3.03057
0.68106
0.546887
0.396798
4.36478
100
0.620197
0.694695
100
0.914361
100
0.890886
36.5263
100
0.939107
2.10942
1.39078
0.789534
7.0101
0.408476
0.538402
0.661582
0.551231
1.02209
0.716202
0.978843
0.74704
0.879594
1.00726
1.06934
2.48746
0.837153
0.45688
0.478951
1.78406
0.992847
0.475668
100
0.466085
0.643188
1.69682
0.359772
0.569319
1.19862
1.05311
0.68781
4.99281
2.24595
100
100
2.78715
100
0.526156
0.637282
0.66795
0.731296
2.67954
0.868586
100
0.459907
100
100
100
1.36346
0.514455
3.16895
1.10334
100
1.1586
100
100
0.564687
1
1
1
1
SCALARS cell_Gaussian_modifier float
LOOKUP_TABLE default
7.65656e+15
1.02345e+15
3.83641e+14
9.44712e+14
2.44094e+14
2.77497e+13
1.28471e+11
4.01617e+12
2.76708e+14
8.17724e+13
2.92544e+12
9.8385e+11
4.51027e+09
4.75831e+10
7.55302e+12
7.26595e+13
2.42249e+12
1.66844e+10
2.18029e+09
3.37677e+07
4.10991e+09
3.95182e+10
6.08565e+11
1.02687e+11
2.98909e+09
1.71894e+08
2.43266e+07
5.04137e+07
1.36258e+09
4.41258e+09
9.4509e+10
7.20994e+08
7.9449e+07
5.74749e+06
474710
5.48819e+08
2.09502e+09
7.51587e+16
2.03134e+16
2.72786e+15
2.03224e+13
3.21964e+12
1.08296e+12
2.70641e+10
5.06159e+09
3.66213e+07
1.56731e+06
2.69105e+08
1.63027e+09
2.97206e+11
9.12582e+11
3.12823e+12
2.15684e+15
2.03179e+16
1.32803e+17
100
9.44564e+14
2.52732e+11
7785.35
6.87446e+10
3.80576e+14
1.22153e+07
5.26675e+06
2.88787e+12
1.8975e+11
7.74266e+10
2.35698e+07
2.43178e+08
3.11987e+09
2.18234e+08
4.11826e+06
5.38207e+06
3.61843e+08
3.99928e+13
1.4166e+13
2.7871e+11
2.25713e+07
5.80916e+10
1.87641e+10
9.54505e+16
13774.5
1.06764e+16
3.46854e+08
2.05412e+07
300.277
1.65909e+16
1.28814e+13
3.58372e+15
2.72661e+08
1.07403e+10
1.33424e+16
100
1.20829e+14
1.20464e+11
8.1136e+13
6.85257e+09
6.84469e+08
1.41043e+12
1.37432e+13
2.24242e+10
3.50729e+10
2.79415e+09
3.40362e+06
5.37224e+06
106384
3.50884e+08
1.74156e+08
276840
1.42349e+06
1.14476e+08
124034
4.95826e+07
6982.3
4.11303e+06
9.82904e+07
547247
3.42101e+07
3.01436e+06
1.31834e+06
49870.3
3506.01
4.44829e+06
1.61592e+07
50150.3
465543
3223.09
18795
5235.46
455401
331096
1.06997e+06
135722
3.13279
825798
26539.9
356328
68544.8
116.374
117831
28.065
424046
338699
5.25751e+06
9716.74
1.36452
1.10841e+06
44450.7
21731.5
49.8291
397622
1.86887e+06
1282.92
13364
26537.9
95693.4
7314.06
81301.5
111381
237.503
46.9572
9.13857
12687.5
822.875
4925.07
3394.73
1.08434
93.4796
171195
1275.12
109.002
49875.7
25868.9
2692.19
1.27951
2.19998
153.102
11527.1
2379.3
5867.86
40680.6
3870.83
104.031
1075.22
190.216
2424.72
14275.3
167.843
24.5563
1.51792
1.14019
291.119
623.27
575.315
3.60048
620.036
65.3322
261.139
17.9175
3.58742
1498.47
35.362
11.4263
703.818
1705.07
847.735
310.524
1894.84
91.1794
306.911
15.2696
531.674
73.7436
1.82746
155.033
1.57377
3.5839
150.638
21.9268
209.205
501.413
25.4142
1644.71
65.1348
462.859
1.14032
1.00022
206.175
90.5115
586.192
40.6309
17.5301
34.7806
3.5005
1.98604
6.96112
9.14092
28.1952
1.16837
65.6446
38.8957
1.09423
19.8968
2.22294
1.50249
1.05006
55.0423
14.2563
6.09458
1.08975
78.5313
1.50307
11.4119
1.00008
2.28441
1.12274
9.43473
3.11864
17.413
4.54607
21.6673
1.92979
3.22093
1.00029
8.36929
1.01655
1.19689
4.95575
2.0146
1.00253
5.38369
1.04441
1.18876
6.03286
1.7123
24.4181
1.53131
9.0199
12.1758
36.9713
1.21946
8.88585
1.37422
7.49666
66.6488
1.98942
1.64872
6.41771
1.54472
1.71385
11.1204
1.31324
5.5348
3.8169
1.40334
3.39739
7.02872
1.43145
1.45926
1.19597
2.51245
15.346
3.62412
1.02993
8.89532
5.47448
12.0703
1.04655
3.89312
1.15844
1.68117
1.01654
1.17241
2.16606
1.85224
1.84059
1.06397
3.51722
1.15905
2.66068
3.60019
1.12809
1.27936
1.14618
1.0209
1.02714
2.41573
1.08166
1.00057
1.08035
1.01135
1.3972
1.06276
1.49952
1.1541
1.00148
2.00568
1.20848
2.31287
1.43369
1.00014
1.0267
1.00278
1.23778
1.03125
1.06876
1.56304
1.00431
1
1
1
1
