# vtk DataFile Version 2.0
2D-vertex
ASCII
DATASET UNSTRUCTURED_GRID
POINTS 684 float
0.161892 -3.20603 0
2.61082 -3.08193 0
3.03238 -2.14512 0
2.042 -1.04119 0
-0.217187 -0.820221 0
-0.982904 -2.28846 0
3.55896 -2.12947 0
4.16171 -1.29639 0
3.28221 0.253174 0
2.22522 -0.0246972 0
1.09351 1.27287 0
-0.580796 1.80464 0
-1.38489 0.553898 0
-1.54238 0.519963 0
-2.10989 -1.13507 0
-1.62617 -2.03718 0
4.72873 -1.47464 0
5.56885 -0.625722 0
3.78931 0.978824 0
3.51499 0.921333 0
2.67197 1.91181 0
1.60117 1.86161 0
1.0742 5.48496 0
0.192268 5.48666 0
-0.674041 3.64824 0
-1.91941 2.78264 0
-1.88946 0.879296 0
-3.18928 0.624278 0
-3.73072 -0.396515 0
-3.44859 -1.1165 0
6.6371 -0.65324 0
7.28244 0.044133 0
7.1551 1.36379 0
4.9792 2.61761 0
5.46844 3.17967 0
3.16882 4.59093 0
2.45852 5.88646 0
1.55645 6.07619 0
0.695938 9.21134 0
-0.924336 9.29618 0
-0.661055 6.32452 0
-2.21165 5.43283 0
-3.28968 3.92842 0
-4.25352 3.985 0
-5.02053 2.5959 0
-6.43823 2.31829 0
-6.74954 1.2565 0
-5.26965 -0.127151 0
7.59756 1.9691 0
7.29252 3.02603 0
6.55645 3.47555 0
5.90503 5.55574 0
3.59245 6.82795 0
3.55047 7.66913 0
2.13772 9.29384 0
2.69606 9.98612 0
-1.90023 10.647 0
-1.83282 9.80913 0
-3.07586 8.53624 0
-2.78824 6.41436 0
-4.43771 6.76707 0
-5.83523 5.48324 0
-7.78436 4.03235 0
-7.65019 3.49868 0
8.22829 3.40123 0
8.22832 3.40373 0
6.82805 5.49914 0
7.30594 6.68115 0
6.10278 7.99276 0
6.33991 8.65909 0
5.62959 9.68017 0
5.41776 10.1266 0
-2.64827 12.9223 0
-2.87348 12.6591 0
-6.15597 9.93284 0
-5.48281 9.11523 0
-6.21083 7.78446 0
-6.12487 7.60857 0
-8.76551 4.55084 0
-8.62083 4.19965 0
9.77672 3.64813 0
10.1306 4.5856 0
9.3664 5.60106 0
10.5569 5.97877 0
10.3219 7.50949 0
10.5446 8.21698 0
9.97182 12.9199 0
11.0442 15.0398 0
-9.83932 15.1031 0
-9.82278 15.0448 0
-10.1462 9.15179 0
-9.85109 8.62294 0
-10.193 7.99737 0
-9.45713 6.89348 0
-10.2765 5.64862 0
-9.82651 4.66848 0
3.48356 -4.9643 0
4.69743 -4.44563 0
5.53852 -4.06237 0
7.9235 -2.52864 0
9.2501 -1.12725 0
10.6409 1.16929 0
10.7336 1.32773 0
11.4622 2.37297 0
12.3081 4.27397 0
12.5422 5.04576 0
12.8488 8.55426 0
13.6175 15.3721 0
-13.3305 15.5666 0
-12.7472 9.11536 0
-12.6638 7.84137 0
-12.3004 5.30658 0
-11.4393 3.3645 0
-10.5902 2.26349 0
-9.9967 1.54282 0
-9.11436 0.2229 0
-7.21787 -1.93205 0
-5.17193 -3.35746 0
-3.09573 -4.38226 0
-0.114122 -5.25264 0
12.7631 10.1108 0
8.76285 10.3786 0
-13.0259 11.6115 0
-10.174 12.4123 0
-0.433208 3.30901 0
0.872938 3.37869 0
-1.9325 5.39187 0
-1.22465 3.65228 0
4.44224 4.7566 0
4.87161 5.6674 0
0.410411 10.7662 0
0.174895 9.72362 0
-1.16422 7.66355 0
-2.37815 7.39036 0
5.90415 5.55807 0
5.14052 7.53953 0
4.17568 8.06868 0
4.21323 9.376 0
2.23849 10.9526 0
2.2364 10.9513 0
-2.47019 10.9265 0
-4.02797 9.27612 0
-3.5879 8.56408 0
-4.55321 7.34975 0
1.19751 0.627634 0
-0.273338 -0.335491 0
6.33632 1.63338 0
5.20509 0.124692 0
4.97722 2.61914 0
2.97404 3.48115 0
-9.02891 10.7568 0
-5.96622 10.6007 0
2.97154 3.48125 0
1.54904 4.19439 0
-9.46638 6.83782 0
-8.05582 6.21634 0
-1.01296 -2.30306 0
-1.4807 -4.9857 0
11.3711 34.5651 0
12.8892 35.6228 0
0.978142 -2.88097 0
1.11894 -1.42561 0
2.5293 8.08376 0
1.32701 7.07493 0
8.56651 9.89366 0
5.63008 9.68264 0
9.7783 20.7266 0
0.169292 12.6017 0
-2.89928 -1.38132 0
-3.65696 -4.13344 0
-4.46661 1.66709 0
-5.38189 0.497562 0
-5.80533 -2.97081 0
-4.69156 -0.529178 0
0.387206 7.57857 0
-0.555359 7.15827 0
9.33127 5.4614 0
7.7099 4.71989 0
5.37039 -1.15335 0
7.04483 -3.19457 0
1.43392 -5.35416 0
1.51305 -3.32477 0
-6.32929 0.633651 0
-7.95748 -1.23097 0
-5.45295 4.38216 0
-6.7934 3.16064 0
7.42216 1.48709 0
9.8441 -0.26376 0
-12.542 6.69007 0
-9.47797 6.85971 0
12.9018 7.07437 0
10.7964 6.97669 0
-2.88273 2.98412 0
-3.81783 1.64485 0
-9.58745 0.977077 0
-6.78888 2.59036 0
-3.62811 6.23688 0
-4.41508 4.28414 0
-6.88202 6.39013 0
-6.47028 5.58376 0
8.30163 6.81764 0
8.53048 7.30267 0
-0.810089 12.4695 0
-0.644355 11.4858 0
12.7678 10.1197 0
10.2029 11.4933 0
10.1695 13.8364 0
2.00033 11.4194 0
7.97985 8.56098 0
9.25963 9.25658 0
-7.36827 7.89882 0
-7.70509 8.66363 0
-2.27782 14.7152 0
0.896165 13.8495 0
-10.1005 12.9232 0
-4.15587 12.5473 0
9.25846 9.25881 0
12.7645 9.60763 0
-10.8833 14.1256 0
-13.39 14.5595 0
-12.7989 10.102 0
-9.28082 10.3403 0
13.2135 18.1467 0
10.5555 16.6443 0
8.4527 10.8254 0
6.33519 11.0516 0
-9.28083 10.3378 0
-7.38528 9.61205 0
2.46513 14.3493 0
4.21532 12.7444 0
-4.48652 11.036 0
-3.6929 10.3201 0
4.97113 12.4884 0
4.0181 10.9967 0
13.1786 11.8098 0
10.4356 12.0459 0
-2.90857 14.3211 0
-4.6513 13.5048 0
-12.011 28.7274 0
0.114703 15.3603 0
-6.57981 11.1864 0
-4.53992 12.8179 0
-12.8768 10.8153 0
-9.50272 11.3881 0
6.37755 16.4247 0
8.4048 14.6865 0
-1.02685 14.1556 0
-0.614554 12.6792 0
-10.6665 18.4354 0
-13.6101 17.8087 0
8.06473 37.9123 0
2.42087 15.3564 0
-3.11453 16.7872 0
-10.5621 18.8272 0
-10.8425 13.4153 0
-13.2535 12.6629 0
-6.72513 14.9315 0
-6.1893 13.7769 0
-6.45519 11.8638 0
-7.3205 12.8407 0
13.4832 13.5423 0
10.9663 14.3664 0
-11.2975 20.1785 0
-13.9755 20.6492 0
6.13901 12.1205 0
4.97248 12.4862 0
10.4376 15.7189 0
8.48448 15.3303 0
4.06385 13.8014 0
6.88925 15.9221 0
-2.07443 15.9738 0
-0.414834 16.2866 0
14.4665 21.9162 0
11.9398 22.4575 0
0.382201 15.3058 0
1.42146 16.0461 0
12.4137 24.4252 0
4.18686 15.9222 0
13.3133 12.6656 0
10.2889 13.2953 0
-8.56616 14.4911 0
-8.61902 13.6239 0
-9.40438 11.7022 0
-7.33059 12.4834 0
-10.2377 17.9528 0
-6.38832 16.5711 0
5.11345 39.5867 0
5.26223 41.4413 0
1.8268 13.7134 0
2.56999 12.2031 0
-3.98539 15.9232 0
-3.95367 14.9051 0
-13.4519 16.884 0
-10.473 17.3401 0
0.017968 17.6715 0
-0.203642 17.5393 0
7.86332 13.0505 0
7.47247 13.9215 0
8.71761 11.356 0
7.70522 12.7406 0
-11.3365 19.4839 0
-13.8106 18.8314 0
-2.61319 16.7548 0
-1.64745 18.074 0
1.71736 17.0518 0
3.57025 17.0192 0
6.44626 14.0908 0
6.22316 14.5862 0
-7.68519 18.0275 0
-7.48647 18.3503 0
-9.34008 15.7465 0
-6.60171 15.8782 0
4.15568 15.8545 0
4.83993 14.6889 0
-10.6745 22.0567 0
-3.89124 18.1427 0
14.8267 23.2806 0
12.7597 23.6537 0
-14.5934 28.8301 0
-12.6902 28.2294 0
8.90246 17.181 0
7.89408 16.0529 0
13.2641 19.0454 0
9.98478 19.9259 0
4.45133 18.2529 0
6.37008 19.0125 0
1.56618 19.3883 0
3.81877 18.6905 0
-0.515088 24.9457 0
-3.24997 23.8604 0
-3.06571 22.2131 0
-4.576 19.9689 0
-6.36685 15.5341 0
-4.14399 14.8082 0
-9.94165 20.7674 0
-8.45834 19.4894 0
8.16609 23.6699 0
7.74925 20.8286 0
-13.3409 16.0023 0
-9.72349 16.3547 0
-9.70733 16.3921 0
-7.48697 17.2805 0
0.0596638 19.5594 0
0.270851 19.2954 0
11.4793 33.5954 0
2.51136 22.5092 0
15.1894 30.8245 0
13.464 30.2858 0
-14.6195 23.262 0
-12.1267 23.3097 0
-5.51935 16.8738 0
-5.29618 17.8918 0
8.49362 17.8739 0
7.2735 17.7868 0
1.59205 17.2536 0
2.18747 18.3219 0
10.7187 16.2309 0
13.5541 16.3616 0
13.1477 18.4599 0
8.91468 17.4757 0
-11.5456 24.1243 0
-4.55385 20.102 0
-2.02868 18.9564 0
-3.56169 18.9065 0
4.12037 23.0253 0
4.7695 22.4186 0
-5.96252 18.5679 0
-5.76718 19.5162 0
4.45793 17.8734 0
6.41159 16.9148 0
-1.70461 21.9327 0
0.0105611 23.1532 0
2.0412 28.3485 0
10.2357 32.5669 0
-6.28347 37.9283 0
-7.25773 39.6456 0
-1.27652 38.8619 0
-2.17452 24.5756 0
-14.2099 21.4284 0
-11.9272 22.5829 0
-1.67998 19.4877 0
-3.5444 20.6323 0
-7.54278 21.3968 0
-5.95846 21.4342 0
12.697 28.4675 0
10.6506 30.9549 0
5.4857 20.9176 0
7.19732 21.4174 0
11.8986 22.5477 0
9.0724 22.7428 0
13.7628 20.2396 0
11.6166 21.823 0
-12.4931 27.0183 0
-3.65229 21.7515 0
15.4026 28.6188 0
13.4731 28.952 0
2.72868 20.5034 0
3.95338 19.7323 0
-14.895 25.2996 0
-12.7557 25.7833 0
-1.22943 26.6145 0
4.38814 24.1519 0
0.528479 20.7771 0
2.28619 21.2702 0
-8.44815 19.5446 0
-7.11976 20.2983 0
9.06511 18.9589 0
7.47851 19.6851 0
-1.30942 21.1609 0
-2.00038 20.1794 0
13.1459 18.4699 0
9.08396 18.9069 0
-2.26719 24.2824 0
-1.1359 22.9673 0
-5.82077 21.8721 0
-4.74769 22.308 0
-4.26929 24.264 0
-4.8876 23.6816 0
-13.9791 20.6586 0
-10.6693 21.7384 0
5.82361 24.3894 0
6.54072 23.3924 0
0.152669 29.6155 0
1.36248 39.4028 0
-8.23536 22.4987 0
-7.7549 23.4673 0
0.61653 39.5909 0
0.235189 41.6964 0
-8.77053 29.2497 0
-6.56026 30.6844 0
10.2732 21.3717 0
8.98959 22.319 0
15.0996 24.6496 0
12.85 25.015 0
6.34057 22.8234 0
7.30459 21.8038 0
2.74521 20.9282 0
4.61168 21.6889 0
3.73338 24.693 0
5.05761 28.414 0
5.3599 20.287 0
6.44466 19.3194 0
2.08106 22.8931 0
2.30055 24.0891 0
13.4534 19.595 0
10.2706 21.0957 0
-3.13902 35.5709 0
-2.88961 31.9181 0
-11.888 30.9341 0
-13.6556 31.6806 0
0.149827 21.2386 0
0.604293 22.4941 0
-7.09926 23.5085 0
-6.71096 24.1039 0
-9.86635 21.1826 0
-7.54267 21.3943 0
9.0074 26.3152 0
10.2248 24.7358 0
-14.8964 27.3027 0
-12.7635 26.8039 0
-7.01766 25.019 0
-6.75423 26.5913 0
3.43645 32.9977 0
7.44857 32.1736 0
-10.4686 33.0788 0
-8.03812 30.3949 0
8.72113 26.7896 0
5.78596 27.3916 0
2.62234 27.8348 0
1.75824 25.9212 0
-4.2587 25.9946 0
-4.14153 26.0369 0
6.50572 39.1981 0
7.40256 40.6936 0
0.299959 24.1418 0
1.651 24.6035 0
-9.15087 24.6675 0
-9.18581 25.232 0
4.13647 35.2986 0
1.90073 38.1155 0
-2.75007 25.471 0
-2.05438 26.5592 0
13.0292 30.6017 0
11.3594 30.0319 0
-3.71713 39.2104 0
-3.91119 41.1196 0
-5.41761 37.9145 0
-4.36623 35.6565 0
10.5387 24.3377 0
10.279 23.1978 0
-9.71885 27.6285 0
-8.63209 25.6154 0
12.6419 27.5999 0
10.5873 26.3644 0
-1.25309 35.5938 0
-0.0613033 32.3822 0
-9.84247 22.7198 0
-10.1424 23.9101 0
14.5873 32.5912 0
13.1218 31.8953 0
15.3036 25.8921 0
13.1043 26.368 0
9.92261 36.214 0
8.49052 35.0154 0
-0.754562 29.5723 0
-0.698147 27.6762 0
-8.39089 36.0612 0
-9.86862 37.2454 0
3.74101 25.6398 0
2.48743 26.3196 0
6.92415 30.8196 0
7.14342 27.4856 0
6.30155 25.0907 0
5.17926 25.8765 0
-4.80462 29.3541 0
-3.93349 29.8855 0
8.52682 24.5548 0
8.26588 24.9469 0
5.37224 30.366 0
4.84924 33.256 0
-11.495 31.2399 0
-9.51021 29.34 0
9.72192 37.6911 0
10.5282 38.53 0
-7.84604 28.1313 0
-4.87625 28.6491 0
-7.20751 36.6365 0
-6.44334 35.0076 0
2.79727 32.499 0
1.72072 32.8439 0
-14.1775 30.2514 0
-12.0929 29.4781 0
-12.8199 33.3876 0
-11.5649 32.6296 0
-0.459894 36.6205 0
0.161937 36.5711 0
[...]
CELL_DATA 343
SCALARS cell_division_count float
LOOKUP_TABLE default
1
0
1
0
0
0
1
0
0
1
1
1
1
1
1
1
0
1
1
1
1
1
1
0
1
1
1
1
1
1
1
1
2
4
3
1
1
0
0
1
1
0
0
0
1
2
3
0
1
0
0
1
1
1
1
1
0
0
3
0
1
2
3
1
1
1
1
1
1
1
2
2
1
1
1
1
2
1
1
1
3
1
1
2
9
1
1
1
1
1
1
1
1
1
1
1
1
1
1
1
1
1
2
3
5
2
1
3
5
2
2
2
5
3
2
4
2
3
5
5
6
3
3
6
3
4
6
9
3
5
4
4
8
5
6
6
5
4
5
14
5
5
5
7
5
4
6
4
10
5
3
4
6
6
6
7
6
6
11
7
8
7
6
7
8
13
11
6
8
9
4
7
8
12
6
7
7
8
8
3
6
12
10
11
9
7
11
13
9
13
8
11
10
11
9
9
5
14
6
10
8
13
10
10
8
11
6
10
11
14
8
11
13
11
8
12
9
8
9
11
13
9
11
6
15
11
11
12
11
13
8
13
13
12
15
14
10
7
12
13
12
11
12
10
14
9
14
15
12
12
7
9
13
15
9
14
14
14
13
13
12
12
7
12
14
13
8
9
13
14
13
13
14
14
13
9
14
14
14
12
14
14
14
8
15
9
9
14
13
13
13
12
12
10
12
12
13
15
7
13
13
15
9
14
14
14
7
13
13
12
13
13
15
14
13
13
15
15
12
15
13
9
11
13
13
14
13
13
13
12
9
7
10
13
13
14
15
13
15
13
13
14
15
SCALARS cell_time float
LOOKUP_TABLE default
1911
2.22229e+13
1931
4.48239e+13
2.67348e+11
1.25633e+10
1941
2.68224e+09
9.19769e+11
1931
1931
1921
1891
1941
1861
1901
1.22792e+06
1941
1911
1941
1941
1841
1881
25723.4
1941
1941
1941
1941
1941
1831
1891
1831
1791
1531
1681
1781
1921
1.00108e+18
2.94533e+15
1891
1881
107023
3285.76
1997.34
1871
1771
1571
1988.01
1881
4639.01
2256.18
1861
1901
1911
1921
1891
1.12104e+13
23106.3
1361
3977.96
1891
1811
1631
1941
1941
1941
1941
1941
1941
1941
1821
1701
1941
1931
1931
1931
1761
1921
1921
1921
1061
1911
1911
1771
691
1911
1901
1901
1891
1891
1891
1891
1891
1881
1881
1881
1871
1861
1861
1841
1831
1831
1821
1691
1511
1791
1781
1631
1411
1771
1771
1771
1061
1351
1761
1381
1701
1691
1421
1381
1271
1651
1631
1261
1631
1351
1361
1051
1571
1421
1551
1551
331
1361
1251
1281
1481
1261
1451
281
1421
1421
1411
1111
541
1381
1151
1131
781
1361
1351
1351
1351
1341
1281
1081
1271
1261
621
691
611
1071
661
1001
1071
111
751
1151
1141
691
1131
1111
1111
171
471
941
1081
801
1071
1061
791
481
931
691
1011
1001
631
421
111
91
751
801
921
511
691
491
891
281
871
871
271
291
841
811
801
801
791
781
761
301
751
741
21
731
261
181
691
471
691
691
411
691
681
661
21
111
631
631
621
401
611
161
151
121
121
321
551
71
531
521
81
521
141
71
1
491
281
131
281
481
171
261
101
161
161
161
161
161
231
401
221
221
161
181
131
11
331
331
151
321
141
101
301
101
291
291
291
281
281
101
281
41
281
271
141
81
261
141
141
231
61
221
211
201
181
181
91
31
171
171
161
161
161
161
161
161
161
151
151
141
61
141
141
141
141
131
131
1
121
121
111
111
111
101
101
101
21
91
91
81
81
71
71
61
61
41
31
21
21
21
11
1
1
SCALARS cell_area float
LOOKUP_TABLE default
3.24192
3.30011
3.29362
3.35613
3.35142
3.34401
3.3276
3.37517
3.3489
3.28183
3.33717
3.28322
3.38699
3.32011
3.30641
3.3301
3.39885
3.28982
3.34715
3.39724
3.39273
3.34058
3.33978
3.37283
3.36001
3.37741
3.43933
3.40424
3.39245
3.33036
3.24714
3.29822
3.34947
3.33354
3.4477
3.25075
3.34614
3.25233
3.2608
3.24832
3.23657
3.27779
3.26191
3.27855
3.22031
3.28577
3.25867
3.26362
3.2593
3.24812
3.26779
3.27329
3.21624
3.25685
3.24445
3.24191
3.20939
3.21721
3.27422
3.19628
3.24595
3.30743
3.27095
3.28102
3.33816
3.28598
3.39904
3.353
3.28143
3.359
3.4514
3.3535
3.35818
3.28718
3.24867
3.27567
3.34269
3.3521
3.2318
3.22178
3.22492
3.25855
3.33609
3.33003
3.36557
3.22234
3.29687
3.25199
3.37151
3.2883
3.22421
3.20351
3.21582
3.30447
3.25118
3.24472
3.25904
3.32466
3.26293
3.30124
3.29039
3.26413
3.40111
3.23495
3.2977
3.24172
3.32977
3.38755
3.29274
3.27925
3.26195
3.27274
3.27952
3.29313
3.24717
3.3157
3.35783
3.40392
3.25852
3.42812
3.30119
3.35209
3.27335
3.34504
3.40568
3.26964
3.44138
3.39452
3.21895
3.28103
3.33547
3.21133
3.29387
3.37134
3.31985
3.3515
3.3644
3.27193
3.36624
3.30283
3.2535
3.28462
3.31703
3.27496
3.25566
3.34911
3.39745
3.27489
3.34899
3.31659
3.30209
3.24169
3.3693
3.35786
3.38554
3.387
3.34091
3.30683
3.35311
3.28386
3.26788
3.41111
3.29572
3.31781
3.36403
3.35171
3.35152
3.32811
3.2972
3.35397
3.27657
3.32666
3.42595
3.31292
3.28056
3.23983
3.36
3.37044
3.38288
3.24449
3.30096
3.31023
3.42441
3.37387
3.38721
3.3144
3.36818
3.36912
3.24546
3.31163
3.28661
3.39863
3.39481
3.28707
3.35252
3.26869
3.24542
3.29436
3.24563
3.33583
3.27344
3.29896
3.40732
3.35031
3.30332
3.37723
3.29505
3.32772
3.37287
3.3459
3.31413
3.37481
3.29786
3.34039
3.30035
3.28794
3.34302
3.28823
3.36205
3.35953
3.41667
3.34643
3.37778
3.289
3.27322
3.31293
3.38194
3.31244
3.29665
3.35071
3.22936
3.33721
3.37853
3.25705
3.31504
3.37073
3.39976
3.29842
3.36567
3.37083
3.29663
3.33638
3.26373
3.31531
3.33572
3.32682
3.36924
3.28443
3.30091
3.30954
3.2965
3.25958
3.25578
3.30048
3.25579
3.34999
3.26657
3.32357
3.35146
3.32242
3.28384
3.29261
3.30156
3.32585
3.31175
3.32276
3.28528
3.29076
3.32614
3.31823
3.30238
3.30312
3.35488
3.30687
3.3464
3.29536
3.31996
3.33322
3.35423
3.29345
3.26289
3.31056
3.31736
3.27613
3.30854
3.25501
3.31286
3.30155
3.27474
3.30554
3.29209
3.29995
3.31592
3.29786
3.3438
3.32604
3.32137
3.32819
3.30956
3.31625
3.30417
3.31295
3.29968
3.30583
3.30414
3.29263
3.31489
3.34042
3.34332
3.29765
3.31098
3.33969
3.25892
3.30789
3.31095
3.30547
3.36784
3.33787
3.29811
3.30574
3.32302
3.28462
3.31222
3.24841
3.33729
3.28524
3.27076
3.28558
3.32516
3.32282
3.31943
3.29495
3.31279
3.25597
3.35775
3.26809
3.27868
3.23647
3.29561
3.3371
3.29384
3
3.26373
SCALARS cell_perimeter float
LOOKUP_TABLE default
6.93067
6.9457
6.96301
7.2036
7.1327
6.8213
7.0729
7.64252
6.93932
6.92618
7.3897
7.00328
6.80425
7.23376
7.04436
6.79717
7.18344
6.96957
6.93423
7.03742
6.9319
7.25839
7.24155
7.57262
7.57723
6.94846
8.07825
7.06563
6.88449
7.06745
6.95284
7.04483
8.23141
7.0292
7.03158
7.33991
7.90403
7.5298
7.83926
7.64916
8.28787
8.69062
8.20973
7.7786
7.38781
9.49795
7.97013
7.67228
8.06854
7.67347
8.15338
8.47463
7.79696
8.08645
7.68122
7.22107
7.44399
7.39595
8.26319
7.32947
7.74216
9.55741
8.57088
7.03652
7.13653
7.23511
6.91925
7.05848
7.16778
6.87169
7.89019
7.04683
7.15752
7.07891
7.24081
7.21842
7.81852
7.25791
6.93675
7.88306
8.15331
6.79179
7.01342
7.93554
7.48828
7.99345
6.82614
7.99597
7.04521
7.00039
7.80762
7.31648
7.66564
7.12653
7.94646
7.98938
7.3724
6.94457
8.2517
7.17885
7.16841
6.94507
7.16105
8.00158
7.14423
7.02798
6.8461
7.24169
7.29202
8.56413
8.53869
8.58609
9.75206
7.20916
7.25075
7.07409
6.92468
7.57479
8.1896
6.91235
7.6867
7.23606
8.94207
7.27081
7.24973
8.03118
7.05878
7.02653
7.68246
7.01936
7.29587
7.75547
7.31186
7.43018
7.20415
7.15313
7.06082
7.59637
6.88424
7.07552
8.1417
6.88611
7.58226
7.59277
7.31699
7.21629
7.43697
8.79611
7.07874
7.27757
7.25632
7.79863
7.08261
7.25364
6.87725
6.91074
8.00036
7.03353
7.61843
7.35465
7.3155
7.05879
8.9378
7.36803
7.02795
7.12525
6.95914
7.27278
7.38113
7.14552
9.12545
7.92556
7.11711
6.94253
7.13069
7.68378
7.06303
7.14823
7.36675
7.91936
10.2109
6.82392
7.28473
7.17204
6.91964
7.40533
6.89286
6.90932
7.2956
6.86145
8.52019
7.06679
7.6696
6.94775
6.95856
7.03863
7.78157
7.0462
7.3155
7.0153
7.82838
6.94352
7.37556
7.15076
7.1131
6.937
9.4582
7.03214
7.04644
6.98328
9.08724
6.95517
7.42356
7.16008
7.21905
6.92699
7.29025
7.42657
7.12189
7.2085
7.05046
7.16469
7.04468
8.59425
6.92709
7.24599
7.12345
7.19795
7.3876
7.12189
7.40743
7.2138
6.98726
6.93427
7.0875
6.87175
7.02496
7.11416
6.9191
7.13404
6.95021
6.90734
7.10194
7.4309
6.8466
6.92535
6.86116
7.00378
6.86032
7.01959
7.09242
7.52043
6.97795
6.99916
7.32908
7.23914
6.99394
7.41855
6.78544
7.15393
7.20584
7.23388
7.18562
7.19696
6.79695
6.96814
7.29749
7.17499
6.97537
6.92223
6.87898
6.87225
6.96139
7.10565
6.93659
7.19811
6.99445
7.03093
7.0961
6.87667
7.22516
6.86269
6.87213
7.92463
6.96475
7.3175
7.44689
7.01683
7.24297
7.03279
6.88589
7.42986
6.94452
7.11989
7.03577
6.84149
6.96071
6.82438
7.13342
7.36679
7.15037
6.79423
7.25628
7.17975
6.98535
7.10828
7.12907
6.96943
7.07765
7.24798
6.84998
6.9077
6.90006
7.12234
7.45119
6.93982
7.07209
7.07514
6.94492
6.99531
7.01549
7.16146
7.24531
6.99402
6.81443
7.06812
6.95293
6.93443
6.87187
7.03259
7.10395
7.25008
7.38005
7.01944
7.07604
6.94544
6.92214
7.38326
6.80484
6.9207
6.92829
17
3.27335
SCALARS cell_frequency_modifier float
LOOKUP_TABLE default
7.09102e+17
1.56101e+15
1.27817e+15
3.29214e+14
1.00642e+14
1.18303e+13
6.49477e+10
1.14693e+12
1.0574e+14
8.07354e+15
1.39726e+12
8.67751e+13
1.21969e+09
2.67247e+10
6.72392e+12
3.38497e+13
7.11624e+11
1.03152e+11
8.38223e+08
8.76616e+06
1.05213e+09
1.53665e+10
2.38152e+11
3.3062e+10
9.89948e+08
4.88708e+07
6.0644e+06
1.19237e+07
3.39606e+08
1.88953e+09
9.13224e+12
1.18193e+09
3.11147e+07
2.74581e+06
107010
4.01734e+10
7.13955e+08
7.55761e+18
2.05506e+18
2.80171e+17
2.06688e+15
3.21408e+14
1.0836e+14
2.65395e+12
4.95987e+11
3.28168e+09
1.11137e+08
1.92865e+10
1.17555e+11
2.20427e+13
6.87526e+13
2.39478e+14
1.78643e+17
1.80395e+18
1.24366e+19
10000
9.81497e+16
2.54374e+13
549211
5.00979e+12
3.0786e+16
1.13491e+07
3.75836e+08
2.51214e+14
7.86153e+10
2.83449e+12
5.84859e+06
7.91545e+07
2.81245e+11
7.29094e+07
978387
1.6822e+06
1.06273e+08
5.11234e+14
1.34508e+15
2.52203e+13
8.01093e+06
2.07761e+10
1.38378e+12
8.7315e+18
1.20884e+06
1.0219e+18
1.55125e+08
1.03576e+07
94.9736
1.44252e+18
2.28376e+13
3.03649e+17
7.70776e+07
8.89379e+10
1.37267e+18
10000
9.54142e+15
1.07269e+11
8.27238e+15
4.96235e+11
6.5584e+10
7.20876e+11
1.06726e+15
2.44778e+10
1.68013e+11
2.63879e+11
826099
4.91416e+08
187968
3.24157e+10
7.47591e+07
73348.2
4.50471e+06
1.07041e+10
8.80698e+06
3.55114e+09
603803
1.47441e+07
7.16934e+09
353220
1.01192e+07
777112
1.18918e+08
11831.3
3721.4
1.39559e+06
1.15792e+09
20027.2
113375
225550
4594.35
1371.81
3.21028e+07
2.45344e+07
440747
1.21224e+07
7.92193
247741
15815.5
129126
20974.2
9606.52
35955.4
30.0936
3.79628e+07
2.4413e+07
2.81151e+06
715771
143.633
410155
10704.3
1.54168e+06
19.2845
256130
2.18191e+06
88464.5
3962.86
8700.46
26838.7
1822.79
29039.6
99965
73.2448
3865.59
659.49
3235.7
1783.76
3019.75
1081.57
0.439437
34.2895
76301.9
2016.5
37.8516
3.55546e+06
11619.9
674.142
0.995893
192.208
10452.8
3499.17
718.874
1642.89
3.59171e+06
4856.97
72.6723
268.646
56.5993
632.174
9759.93
52.5813
7.75187
134.958
0.981721
5143.18
166.968
146.264
57.2194
219.552
5492.8
21639
41.5429
304.031
696.179
2467.61
16.8192
182.061
574.977
892.087
90.1462
4660.79
47.0264
89.3728
6.11786
304.069
21.9811
3.60369
62.8089
2.38004
40.4577
61.0939
183.75
68.1355
165.374
6.71627
642.963
19.0579
3046.32
108.538
0.830653
59.1346
67.186
1031.14
15.3192
1227.46
15.8129
1.0848
164.32
4.80207
2.77992
7.63792
2.1705
20.968
11.2032
2.66162
9.1608
196.328
1.09662
0.547588
28.3659
4.04952
523.437
1.5732
60.2158
3.34973
940.983
100.7
3.13856
108.916
3.74181
286.669
9.81035
1.73418
12.4291
180.457
12.8201
1.36004
4.74353
0.905512
0.791147
369.663
9.42399
0.62694
3.20655
1.32984
1.35496
2.03461
1.68807
9.64933
3.79761
5.36256
5.72168
11.1251
4.66582
670.119
1.1926
4.69531
4641.1
1.78277
164.872
4.53744
1.87236
163.709
11.0976
6.74029
7.05604
2.47476
2.32562
1.50938
3.96473
0.894994
0.784939
1.08016
1.54239
16.3459
2.57146
1.69517
8.85561
5.99503
50.2926
0.799085
1.80215
0.594652
3.16809
0.925452
0.577263
198.08
1.86657
1.65653
1.18348
1.11793
0.602244
4.31214
3.56522
0.710283
117.284
0.938658
100.672
0.514045
221.885
108.954
100.136
0.653527
0.668427
0.999502
3.33764
1.19395
110.737
0.393275
178.808
117.15
186.116
3.50621
0.525932
3.55094
1
1
SCALARS cell_area_modifier float
LOOKUP_TABLE default
100
1.59719
3.64706
0.392631
0.427051
0.468085
0.594595
0.336458
0.446627
100
0.521806
100
0.323683
0.677259
1.07064
0.565037
0.307623
7.03093
0.449572
0.311843
0.31618
0.488189
0.498903
0.343231
0.375344
0.33317
0.290584
0.300838
0.317653
0.560394
100
1.80902
0.438022
0.551334
0.288128
100
0.458642
100
100
100
100
100
100
100
100
97.4286
100
100
100
100
100
100
100
100
100
100
100
100
100
100
100
1.02249
100
100
0.50631
40.1176
0.306242
0.406679
100
0.381645
0.286916
0.401886
0.383793
14.5106
100
100
0.481299
0.411587
100
100
100
100
0.534064
0.569758
0.367259
100
2.2215
100
0.344967
8.85714
100
100
100
1.16184
100
100
100
0.63324
100
1.40041
6.37383
100
0.303516
100
2.02374
100
0.574558
0.319139
4.34395
100
100
100
100
4.08383
100
0.760312
0.388162
0.302171
100
0.291827
1.42977
0.414086
100
0.464894
0.299517
100
0.289351
0.314721
100
100
0.546913
100
3.29469
0.346721
0.690983
0.421769
0.369247
100
0.363346
1.27002
100
100
0.727855
100
100
0.440853
0.310423
100
0.443722
0.735707
1.31915
100
0.353918
0.385965
0.325227
0.322154
0.484719
1.0541
0.404268
100
100
0.296909
2.55431
0.712644
0.371257
0.416616
0.419176
0.584404
2.15142
0.399531
100
0.605146
0.293081
0.834761
100
100
0.377421
0.352091
0.326785
100
1.46039
0.951185
0.294346
0.339811
0.320639
0.795799
0.359515
0.35763
100
0.900925
25.2593
0.309017
0.313275
18.4324
0.409118
100
100
3.14286
100
0.538279
100
1.71788
0.298207
0.432467
1.22442
0.334806
2.87764
0.589455
0.341512
0.461747
0.805195
0.338126
1.96542
0.49528
1.56064
11.9649
0.477926
10.1791
0.37329
0.379521
0.295622
0.452555
0.331551
7.83908
100
0.824667
0.328358
0.866582
2.2963
0.429742
100
0.517844
0.329947
100
0.777651
0.350282
0.304873
1.76227
0.365292
0.348493
2.37631
0.529915
100
0.768884
0.542562
0.599824
0.355764
100
1.49234
0.978479
2.46209
100
100
1.52573
100
0.435227
100
0.639175
0.424393
0.66407
100
4.9781
1.34517
0.621696
0.889179
0.657666
100
5.82906
0.610564
0.705274
1.29412
1.2468
0.394904
1.03805
0.455578
2.76113
0.684052
0.555827
0.397204
3.85311
100
0.938102
0.720169
100
0.992722
100
0.845105
1.37223
100
1.12356
5.37008
1.63549
0.751929
1.91036
0.47132
0.616079
0.6706
0.579439
0.964639
0.74373
1.18198
0.814815
1.67568
1.08772
1.20282
4.63946
0.786621
0.491709
0.4746
2.08563
0.912985
0.502579
100
1.00739
0.925373
1.14238
0.36142
0.510097
1.85831
1.10535
0.645222
100
0.877735
100
0.513941
100
100
100
0.627415
0.651385
0.698055
3.00441
0.855709
100
0.390384
100
100
100
2.6537
0.525829
3.46193
1
1
SCALARS cell_Gaussian_modifier float
LOOKUP_TABLE default
7.09102e+15
9.77348e+14
3.50465e+14
8.38483e+14
2.35668e+14
2.52737e+13
1.0923e+11
3.40884e+12
2.36752e+14
8.07354e+13
2.67773e+12
8.67751e+11
3.76815e+09
3.94601e+10
6.28026e+12
5.9907e+13
2.3133e+12
1.46711e+10
1.86449e+09
2.81109e+07
3.32763e+09
3.14766e+10
4.77351e+11
9.63257e+10
2.63744e+09
1.46684e+08
2.08697e+07
3.96351e+07
1.06911e+09
3.37178e+09
9.13224e+10
6.53353e+08
7.10347e+07
4.98031e+06
371398
4.01734e+08
1.55667e+09
7.55761e+16
2.05506e+16
2.80171e+15
2.06688e+13
3.21408e+12
1.0836e+12
2.65395e+10
4.95987e+09
3.36829e+07
1.11137e+06
1.92865e+08
1.17555e+09
2.20427e+11
6.87526e+11
2.39478e+12
1.78643e+15
1.80395e+16
1.24366e+17
100
9.81497e+14
2.54374e+11
5492.11
5.00979e+10
3.0786e+14
1.10995e+07
3.75836e+06
2.51214e+12
1.55271e+11
7.06545e+10
1.9098e+07
1.94637e+08
2.81245e+09
1.9104e+08
3.41001e+06
4.18576e+06
2.76901e+08
3.52317e+13
1.34508e+13
2.52203e+11
1.66444e+07
5.0478e+10
1.38378e+10
8.7315e+16
12088.4
1.0219e+16
2.90462e+08
1.8179e+07
258.601
1.44252e+16
1.02803e+13
3.03649e+15
2.23435e+08
1.00414e+10
1.37267e+16
100
9.54142e+13
9.23271e+10
8.27238e+13
4.96235e+09
6.5584e+08
1.13839e+12
1.06726e+13
1.7479e+10
2.63598e+10
2.63879e+09
2.72177e+06
4.91416e+06
92881.4
3.24157e+08
1.30116e+08
229832
1.03701e+06
1.07041e+08
88069.8
3.55114e+07
6038.03
3.61035e+06
7.16934e+07
464573
2.60696e+07
2.57176e+06
1.18918e+06
40542.3
2602.79
3.37029e+06
1.15792e+07
43079.1
378527
2255.5
15878.1
4358.81
321028
245344
805883
121224
2.40446
714525
22888.4
306153
56802.4
96.0652
98956.4
23.6954
379628
244130
3.86274e+06
7157.71
1.43633
930367
34482.8
15416.8
43.4607
348142
1.65403e+06
884.645
11197.1
22542.1
82523.1
5658.12
59910.2
94834.9
181.179
38.6559
6.5949
10898
698.336
4237.38
2913.27
1.05478
81.8021
130564
937.29
94.7401
35554.6
19201.8
2300.19
1.19303
1.92208
104.528
9271.27
2041.73
5027.44
35917.1
3325.81
76.4018
912.686
166.561
1971.6
12264.3
146.256
21.6757
1.34958
1.08968
203.616
540.319
466.885
3.10428
536.647
54.928
216.39
13.2182
3.04031
1293.34
24.6761
9.79065
610.517
1329.53
728.581
269.249
1619.66
79.7794
261.697
13.2494
377.634
65.0085
1.83355
126.815
1.52504
3.38136
127.831
18.0517
182.527
435.743
22.7191
1420.74
57.481
388.607
1.08538
1.00726
180.092
77.5299
449.043
35.6475
12.2746
30.5361
3.2878
1.6432
6.17509
7.93621
25.0528
1.23165
57.4008
32.1477
1.12007
17.2873
1.96328
1.42625
1.00926
47.2904
11.3826
5.23437
1.05418
61.5402
1.36052
9.40983
1.007
2.05709
1.08916
8.59738
2.86669
15.3485
4.08626
18.7166
1.80457
2.5753
1.01106
7.62999
1.01837
1.20296
3.69663
1.61673
1.02682
4.54653
1.0276
1.08675
5.15215
1.62619
21.1804
1.37538
7.8394
10.294
28.0085
1.21093
6.70119
1.27129
6.51973
46.411
1.79584
1.64872
5.36908
1.36446
1.63709
9.87719
1.25516
4.31432
3.29121
1.21737
3.20245
6.43542
1.33462
1.35465
1.11975
2.07386
13.8293
3.15588
1.01163
8.14145
4.98414
10.8402
1.01585
3.66509
1.25295
1.51901
1.01365
1.1486
1.9808
1.85288
1.79012
1.03597
3.09316
1.18065
2.32046
3.22543
1.10083
1.17284
1.06941
1.00672
1.0002
2.21885
1.08954
1.00136
1.04162
1.02616
1.43184
1.11092
1.39528
1.10737
1.00741
1.78808
1.1715
1.86116
1.32125
1.0002
1.02571
1
1
