# vtk DataFile Version 3.0
2D-vertex
ASCII
DATASET UNSTRUCTURED_GRID

POINTS 174 float
0.294996 -2.04366 0
2.48949 -1.99865 0
3.26631 -0.861934 0
2.23516 0.252163 0
-0.512175 0.238683 0
-1.16891 -0.864827 0
4.13079 -0.805901 0
4.55248 0.140159 0
3.45837 1.31839 0
2.30554 0.876273 0
0.948103 1.85666 0
-0.895595 2.57104 0
-1.79116 1.48042 0
-2.28029 1.4508 0
-2.75829 0.543947 0
-2.35621 -0.365454 0
5.47693 0.25455 0
5.92796 1.18792 0
4.13401 2.197 0
3.6074 2.0165 0
2.89179 2.68315 0
1.53527 2.53239 0
1.00087 5.90367 0
0.0827617 5.81311 0
-0.693779 3.70768 0
-2.66053 3.11484 0
-2.91932 2.36948 0
-4.14166 2.36658 0
-4.63821 1.79392 0
-4.53291 1.1685 0
6.88881 1.27928 0
7.78037 3.01076 0
7.29886 3.79493 0
5.13654 3.9505 0
5.76811 4.89268 0
3.29227 5.30596 0
2.61404 6.12665 0
1.263 6.24893 0
0.273189 8.36995 0
-0.254854 7.98563 0
-0.684729 6.31365 0
-3.05499 5.49495 0
-3.76285 4.52061 0
-4.55847 4.54556 0
-4.92474 3.95906 0
-6.12085 3.95264 0
-6.39933 3.41955 0
-5.78287 2.08993 0
7.80752 4.68263 0
7.48962 5.46748 0
6.96135 5.58913 0
5.95756 7.33369 0
3.62701 7.51357 0
3.39101 8.15919 0
1.80159 9.47757 0
2.00829 10.2853 0
-1.11039 10.5226 0
-1.43953 8.83829 0
-2.5474 8.25831 0
-3.30234 6.35692 0
-4.49995 6.74987 0
-5.24021 5.94777 0
-6.33076 5.94669 0
-6.78691 4.93461 0
8.21324 6.30976 0
7.85101 7.46605 0
6.84722 7.84924 0
6.60835 9.61101 0
5.41693 9.88953 0
5.0408 10.8623 0
3.59936 11.0681 0
2.16321 12.1303 0
-0.793579 12.2127 0
-1.41412 11.5698 0
-3.74397 11.1932 0
-3.73113 10.3825 0
-4.57489 9.8873 0
-4.77219 7.99552 0
-6.6296 6.98608 0
-6.75648 6.46802 0
8.37092 8.03669 0
7.8976 9.87815 0
7.20088 10.1397 0
6.89552 11.5046 0
5.79064 11.7633 0
5.4168 12.7282 0
2.35715 13.5433 0
1.95055 13.9486 0
-1.08758 14.0773 0
-1.4175 13.5958 0
-4.6706 13.1399 0
-4.95516 11.9716 0
-5.99059 11.4681 0
-5.91038 10.4909 0
-6.84301 9.77727 0
-7.60322 7.98586 0
2.7715 -3.04691 0
4.91432 -2.13388 0
6.48746 -1.05132 0
7.94434 0.328568 0
9.21455 2.63866 0
9.61895 4.4425 0
9.83379 6.10943 0
9.87159 8.07673 0
9.15441 10.5946 0
7.8752 12.4063 0
6.26558 13.8701 0
2.40345 15.6417 0
-1.618 15.7605 0
-5.36739 13.995 0
-7.06649 12.254 0
-8.11371 10.6867 0
-8.90653 8.08772 0
-8.82582 6.14888 0
-8.58836 4.65326 0
-8.17488 3.00514 0
-7.13437 0.999945 0
-6.12427 -0.184332 0
-3.58088 -2.07943 0
0.270039 -3.30048 0
4.35851 14.9834 0
3.80548 13.8031 0
-3.39076 15.1632 0
-2.6995 13.7061 0
-0.691922 3.706 0
0.903531 3.78172 0
-1.9342 5.22651 0
-1.55567 3.7644 0
4.78466 5.82853 0
4.92099 6.95749 0
0.0703274 10.5196 0
0.265188 8.37285 0
-0.781336 6.7214 0
-2.43365 7.14173 0
5.98192 7.4436 0
4.77401 8.95735 0
3.97421 8.98604 0
3.17911 10.4357 0
1.00759 11.5879 0
0.96192 11.1446 0
-1.39576 10.7627 0
-3.01719 9.95995 0
-3.04839 8.54791 0
-4.53571 7.80298 0
1.00007 1.57865 0
-0.54434 0.422795 0
6.45312 3.58664 0
5.71986 1.54618 0
5.13213 3.95709 0
3.24647 4.2855 0
-3.05344 13.2047 0
-2.65475 12.0114 0
3.0365 4.14835 0
1.54987 4.64994 0
-6.50299 9.79188 0
-5.52134 7.88265 0
-1.2944 -0.905033 0
-1.77947 -2.909 0
0.381382 14.177 0
0.662113 15.9286 0
1.12438 -1.53745 0
1.04018 -0.363366 0
2.71497 8.23652 0
1.12932 6.90807 0
4.36688 12.8349 0
3.39533 11.6267 0
0.824815 13.6819 0
0.324977 12.2433 0
-3.60758 0.460423 0
-4.6133 -1.43032 0
-4.32388 2.73714 0
-6.25394 3.10595 0
-6.62932 0.407807 0
-4.79194 1.83368 0

CELLS 261 783
2 0 160
2 1 2
2 2 3
2 161 4
2 4 5
2 5 0
2 2 6
2 6 7
2 7 8
2 8 9
2 3 9
2 9 144
2 10 11
2 11 12
2 145 4
2 12 13
2 13 14
2 15 14
2 5 156
2 7 16
2 16 17
2 147 17
2 19 18
2 19 8
2 20 19
2 21 20
2 10 21
2 153 125
2 22 23
2 24 23
2 24 124
2 127 24
2 25 26
2 26 13
2 26 27
2 28 27
2 29 28
2 14 168
2 17 30
2 30 31
2 31 32
2 32 146
2 18 33
2 33 148
2 128 35
2 20 152
2 35 36
2 37 36
2 37 22
2 163 37
2 131 38
2 40 132
2 23 40
2 126 40
2 41 42
2 42 25
2 42 43
2 43 44
2 27 170
2 44 45
2 45 46
2 171 47
2 173 47
2 32 48
2 48 49
2 49 50
2 34 50
2 50 51
2 52 129
2 36 52
2 52 53
2 53 162
2 54 38
2 55 54
2 139 55
2 57 56
2 39 57
2 58 57
2 59 133
2 59 41
2 60 59
2 60 61
2 61 43
2 61 62
2 62 63
2 63 45
2 49 64
2 64 65
2 65 66
2 51 134
2 66 67
2 67 68
2 53 136
2 68 69
2 70 69
2 55 137
2 165 70
2 138 71
2 73 72
2 56 140
2 151 73
2 74 75
2 58 142
2 75 76
2 77 76
2 143 60
2 155 77
2 78 79
2 79 62
2 65 80
2 80 81
2 81 82
2 82 67
2 82 83
2 84 83
2 69 84
2 84 85
2 85 164
2 71 86
2 86 87
2 158 88
2 88 89
2 89 72
2 89 123
2 90 91
2 91 74
2 91 92
2 92 93
2 76 93
2 93 154
2 94 95
2 95 78
2 1 96
2 96 97
2 97 6
2 97 98
2 16 98
2 98 99
2 99 30
2 31 100
2 100 101
2 101 48
2 101 102
2 102 64
2 102 103
2 103 80
2 81 104
2 104 105
2 83 105
2 105 106
2 85 106
2 106 120
2 87 107
2 108 88
2 108 122
2 109 90
2 109 110
2 110 92
2 110 111
2 111 94
2 95 112
2 112 113
2 113 79
2 113 114
2 114 63
2 114 115
2 115 46
2 47 116
2 116 172
2 117 29
2 169 118
2 118 15
2 157 119
2 119 0
2 119 96
2 99 100
2 103 104
2 159 108
2 111 112
2 115 116
2 120 107
2 121 86
2 120 121
2 122 109
2 123 150
2 122 123
2 124 11
2 125 21
2 124 125
2 41 126
2 127 25
2 126 127
2 34 128
2 129 51
2 128 129
2 56 130
2 131 39
2 130 131
2 132 39
2 133 58
2 132 133
2 134 66
2 135 68
2 134 135
2 136 135
2 137 70
2 136 137
2 167 138
2 139 130
2 138 139
2 140 73
2 141 75
2 140 141
2 142 141
2 143 77
2 142 143
2 144 10
2 145 12
2 144 145
2 146 33
2 147 18
2 146 147
2 148 34
2 149 35
2 148 149
2 150 90
2 151 74
2 150 151
2 152 149
2 153 22
2 152 153
2 154 94
2 155 78
2 154 155
2 156 15
2 157 118
2 156 157
2 87 166
2 159 107
2 158 159
2 160 1
2 161 3
2 160 161
2 162 54
2 163 38
2 162 163
2 164 121
2 165 71
2 164 165
2 166 158
2 167 72
2 166 167
2 168 29
2 169 117
2 168 169
2 170 44
2 171 46
2 170 171
2 172 117
2 173 28
2 172 173

CELL_TYPES 261
3
3
3
3
3
3
3
3
3
3
3
3
3
3
3
3
3
3
3
3
3
3
3
3
3
3
3
3
3
3
3
3
3
3
3
3
3
3
3
3
3
3
3
3
3
3
3
3
3
3
3
3
3
3
3
3
3
3
3
3
3
3
3
3
3
3
3
3
3
3
3
3
3
3
3
3
3
3
3
3
3
3
3
3
3
3
3
3
3
3
3
3
3
3
3
3
3
3
3
3
3
3
3
3
3
3
3
3
3
3
3
3
3
3
3
3
3
3
3
3
3
3
3
3
3
3
3
3
3
3
3
3
3
3
3
3
3
3
3
3
3
3
3
3
3
3
3
3
3
3
3
3
3
3
3
3
3
3
3
3
3
3
3
3
3
3
3
3
3
3
3
3
3
3
3
3
3
3
3
3
3
3
3
3
3
3
3
3
3
3
3
3
3
3
3
3
3
3
3
3
3
3
3
3
3
3
3
3
3
3
3
3
3
3
3
3
3
3
3
3
3
3
3
3
3
3
3
3
3
3
3
3
3
3
3
3
3
3
3
3
3
3
3
3
3
3
3
3
3
3
3
3
3
3
3
3
3
3
3
3
3

CELL_DATA 261
SCALARS current_Length float
LOOKUP_TABLE default
0.971656
1.3768
1.51805
1.66501
1.28415
1.87953
0.866291
1.03579
1.60789
1.23471
0.628065
1.48242
1.97726
1.4112
0.186901
0.490031
1.02512
0.994322
0.131774
0.9315
1.03664
0.414316
0.55668
0.713841
0.978021
1.36487
0.89519
1.08239
0.922561
2.24407
0.00250418
0.863759
0.789013
1.11907
1.22234
0.75796
0.634219
0.853394
0.965186
1.94753
0.920203
0.871016
2.01986
0.00792912
1.58123
1.47233
1.06467
1.35656
0.433494
0.672558
0.00851032
0.419035
0.916289
1.65622
1.20433
1.78642
0.796009
0.691475
1.7746
1.19613
0.601444
1.46557
1.18232
1.02311
0.846783
0.542096
1.38161
2.01273
1.4084
1.71745
0.687407
0.680446
1.88755
0.833781
1.35399
1.71616
1.45962
1.25049
1.17071
0.896753
1.26043
1.09149
1.55915
1.09055
1.11012
1.18655
1.11044
1.2117
1.07445
0.112579
1.77789
1.22355
1.01182
1.04293
1.45606
1.18044
0.594729
1.2766
0.893542
0.37296
1.3169
0.810811
0.578674
0.978357
1.90205
1.05371
0.757602
0.533371
0.67307
0.771969
1.90132
0.744187
0.794095
1.39864
1.13477
1.17222
1.03475
1.05533
1.4262
0.574143
1.47234
0.583732
1.51729
1.28674
1.20242
1.43975
1.15139
0.980492
1.46555
0.91638
1.94604
1.39553
1.08553
2.32922
1.5419
1.90963
1.6512
2.00664
1.42056
1.48166
1.84861
1.82728
1.68072
1.63288
1.96767
1.5012
1.44666
2.21785
1.33152
2.17562
1.4228
2.20826
1.75259
1.76483
1.87068
1.10303
2.43269
1.33238
1.885
1.56258
1.30729
1.94052
2.0938
1.51434
1.82329
1.6992
1.82326
1.73627
1.55654
2.08868
1.21953
2.10654
2.08656
1.25707
2.51429
2.63628
2.61798
2.2863
2.71718
2.25908
2.06293
1.47145
1.30343
2.29606
0.613711
1.61279
1.15308
1.39997
1.59725
1.15249
1.28165
1.51032
1.35757
1.10273
1.13716
1.18072
0.648369
2.15556
1.36947
1.12236
1.70494
0.955657
1.13239
1.93662
0.800315
0.759299
1.65339
0.946323
1.08886
0.445571
0.807244
0.829633
1.80929
1.41238
0.304949
1.66344
0.282832
1.63497
1.92904
1.36593
1.7142
2.16821
1.13129
1.02149
1.91404
1.61846
1.36227
1.25816
0.250803
1.36866
1.56897
0.340335
1.42551
2.14682
1.19105
1.98325
2.06183
1.1569
1.76481
1.77403
1.44091
1.3442
1.1771
1.54094
1.69413
2.06859
1.11922
1.33106
1.55032
0.664586
1.11897
1.52303
1.16516
1.95844
2.14158
0
0
0
4.6471e-310
4.6471e-310
0

SCALARS edge_force float
LOOKUP_TABLE default
0.5
0.5
0.5
0.5
0.5
0.5
0.5
0.5
0.5
0.5
0.5
0.5
0.5
0.5
0.5
0.5
0.5
0.5
0.5
0.5
0.5
0.5
0.5
0.5
0.5
0.5
0.5
0.5
0.5
0.5
0.5
0.5
0.5
0.5
0.5
0.5
0.5
0.5
0.5
0.5
0.5
0.5
0.5
0.5
0.5
0.5
0.5
0.5
0.5
0.5
0.5
0.5
0.5
0.5
0.5
0.5
0.5
0.5
0.5
0.5
0.5
0.5
0.5
0.5
0.5
0.5
0.5
0.5
0.5
0.5
0.5
0.5
0.5
0.5
0.5
0.5
0.5
0.5
0.5
0.5
0.5
0.5
0.5
0.5
0.5
0.5
0.5
0.5
0.5
0.5
0.5
0.5
0.5
0.5
0.5
0.5
0.5
0.5
0.5
0.5
0.5
0.5
0.5
0.5
0.5
0.5
0.5
0.5
0.5
0.5
0.5
0.5
0.5
0.5
0.5
0.5
0.5
0.5
0.5
0.5
0.5
0.5
0.5
0.5
0.5
0.5
0.5
0.5
0.5
0.5
0.5
0.5
0.5
2
0.5
2
0.5
2
0.5
0.5
2
0.5
2
0.5
2
0.5
0.5
2
0.5
2
0.5
2
0.5
0.5
2
0.5
2
0.5
2
0.5
0.5
2
0.5
2
0.5
2
0.5
0.5
2
0.5
2
0.5
2
0.5
2
2
2
2
2
2
2
0.5
0.5
2
0.5
0.5
0.5
0.5
0.5
0.5
0.5
0.5
0.5
0.5
0.5
0.5
0.5
0.5
0.5
0.5
0.5
0.5
0.5
0.5
0.5
0.5
0.5
0.5
0.5
0.5
0.5
0.5
0.5
0.5
0.5
0.5
0.5
0.5
0.5
0.5
0.5
0.5
0.5
0.5
0.5
0.5
0.5
0.5
0.5
0.5
0.5
0.5
0.5
0.5
0.5
2
0.5
0.5
2
0.5
0.5
0.5
0.5
0.5
0.5
0.5
0.5
0.5
0.5
0.5
0.5
0.5
0.5
2
0.5
0
0
0
0
0
0
