# vtk DataFile Version 3.0
2D-vertex
ASCII
DATASET UNSTRUCTURED_GRID

POINTS 416 float
0.0908806 -2.23861 0
2.58735 -2.12453 0
3.01018 -1.20615 0
2.04067 -0.10676 0
-0.26769 0.137604 0
-1.04636 -1.29766 0
3.56678 -1.19369 0
4.17488 -0.362638 0
3.32748 1.1542 0
2.2279 0.876922 0
1.09807 2.13829 0
-0.609595 2.71303 0
-1.43098 1.48329 0
-1.63175 1.44258 0
-2.19538 -0.141779 0
-1.72394 -1.03732 0
4.75133 -0.544372 0
5.63082 0.311042 0
3.88154 1.86321 0
3.56103 1.79927 0
2.75412 2.76919 0
1.62788 2.73241 0
1.15947 6.19036 0
0.140412 6.18779 0
-0.673186 4.41257 0
-1.9987 3.64063 0
-1.99281 1.82215 0
-3.33202 1.57423 0
-3.85544 0.614108 0
-3.5784 -0.102009 0
6.7142 0.278913 0
7.38996 1.00801 0
7.25084 2.3186 0
5.10439 3.49442 0
5.62094 4.06873 0
3.30474 5.38924 0
2.64282 6.58957 0
1.64895 6.78861 0
0.705244 9.68027 0
-1.01208 9.68883 0
-0.699575 7.01063 0
-2.40542 6.18248 0
-3.42421 4.80075 0
-4.4733 4.87712 0
-5.20267 3.60464 0
-6.64816 3.34888 0
-6.95171 2.3441 0
-5.43341 0.915208 0
7.74119 2.97541 0
7.45225 3.97639 0
6.75955 4.37985 0
6.14329 6.41257 0
3.80429 7.58772 0
3.75085 8.3319 0
2.30284 9.79447 0
2.89868 10.5501 0
-2.05457 10.9179 0
-2.02147 10.289 0
-3.22747 9.14421 0
-2.95739 7.17328 0
-4.72023 7.61917 0
-6.08207 6.44148 0
-8.05578 5.14361 0
-7.92759 4.57055 0
8.43216 4.38629 0
8.43255 4.38876 0
7.11376 6.39701 0
7.56087 7.64506 0
6.41307 8.82026 0
6.65197 9.54722 0
6.01236 10.4429 0
5.90639 10.8143 0
-2.79224 13.1726 0
-2.9988 12.9865 0
-6.54748 10.9206 0
-5.87162 9.93881 0
-6.59007 8.81054 0
-6.46951 8.5304 0
-9.03096 5.75317 0
-8.87443 5.33486 0
9.96261 4.65939 0
10.3255 5.65473 0
9.61544 6.68613 0
10.7608 7.06396 0
10.5603 8.63494 0
10.8121 9.43233 0
10.0545 14.3797 0
10.5103 17.0074 0
-9.44265 17.2614 0
-9.4402 16.8782 0
-10.4954 10.6296 0
-10.1611 9.96496 0
-10.506 9.38464 0
-9.74868 8.18321 0
-10.5036 6.95291 0
-10.0571 5.9009 0
3.43157 -3.99401 0
4.66612 -3.4812 0
5.53366 -3.09472 0
7.9654 -1.55666 0
9.31444 -0.145138 0
10.7308 2.15345 0
10.8428 2.34065 0
11.6081 3.43497 0
12.4579 5.36341 0
12.6989 6.17298 0
12.9823 9.76955 0
12.6667 17.8244 0
-12.0796 18.3767 0
-12.8221 10.726 0
-12.7961 9.32186 0
-12.4825 6.66831 0
-11.6614 4.67949 0
-10.8242 3.53139 0
-10.2091 2.74964 0
-9.27359 1.33463 0
-7.35485 -0.854792 0
-5.2852 -2.30651 0
-3.19268 -3.35087 0
-0.202106 -4.24886 0
12.7916 11.7732 0
9.259 11.4369 0
-12.8125 13.8948 0
-10.3495 14.0922 0
-0.460659 4.1195 0
0.942783 4.19354 0
-1.97953 6.11026 0
-1.34513 4.42186 0
4.65357 5.55973 0
5.07325 6.48981 0
0.402365 11.0707 0
0.208391 10.1549 0
-1.24751 8.24077 0
-2.58487 7.97496 0
6.14267 6.41498 0
5.41282 8.32063 0
4.45301 8.80834 0
4.43523 9.99767 0
2.53266 11.3399 0
2.53078 11.3383 0
-2.79054 11.3273 0
-4.35389 10.001 0
-3.92882 9.22097 0
-4.81926 8.19346 0
1.18653 1.54732 0
-0.315006 0.573959 0
6.43736 2.56619 0
5.29567 1.00584 0
5.10232 3.49582 0
3.08672 4.30198 0
-9.35664 12.0954 0
-6.32592 11.4829 0
3.08424 4.30168 0
1.60399 5.00021 0
-9.69279 8.06989 0
-8.2668 7.37156 0
-1.09052 -1.31817 0
-1.57953 -3.96607 0
1.61416 27.7788 0
1.60647 29.0735 0
0.92958 -1.91493 0
1.08176 -0.493896 0
2.66698 8.73747 0
1.43886 7.65296 0
9.09206 10.9112 0
6.05492 10.5202 0
7.36901 22.7902 0
0.591485 12.6726 0
-3.00316 -0.383365 0
-3.77029 -3.09096 0
-4.65352 2.64458 0
-5.54299 1.53688 0
-5.93966 -1.90355 0
-4.82868 0.489591 0
0.44047 8.16938 0
-0.607647 7.70187 0
9.56429 6.47454 0
7.92378 5.71449 0
5.4268 -0.212527 0
7.05367 -2.23644 0
1.365 -4.36657 0
1.46082 -2.36306 0
-6.51005 1.68371 0
-8.11218 -0.132699 0
-5.73875 5.33139 0
-7.0456 4.19996 0
7.54789 2.45972 0
9.92182 0.728892 0
-12.6962 8.06222 0
-9.75033 8.1813 0
13.0508 8.23165 0
11.0103 8.12858 0
-3.03854 3.87377 0
-3.94777 2.60816 0
-9.7613 2.11619 0
-7.04695 3.66455 0
-3.85503 7.01694 0
-4.64221 5.2006 0
-7.17911 7.48454 0
-6.75782 6.57587 0
8.57718 7.82189 0
8.83582 8.41233 0
-0.772934 12.4678 0
-0.684922 11.7973 0
12.7934 11.7831 0
10.4136 12.8801 0
10.0487 15.5065 0
2.39088 11.6181 0
8.27854 9.53074 0
9.63982 10.4256 0
-7.78279 9.01154 0
-8.11295 9.90477 0
-2.18496 14.6521 0
1.22412 13.9321 0
-10.1111 14.7379 0
-4.39938 13.0477 0
9.63909 10.428 0
12.8481 10.9947 0
-10.4832 16.3682 0
-12.4757 17.2292 0
-12.7856 11.9505 0
-9.61425 11.7368 0
11.4329 20.606 0
9.53008 18.8348 0
8.87677 11.8952 0
6.83128 11.9126 0
-9.61386 11.7343 0
-7.75504 10.73 0
2.83238 14.6489 0
4.67069 13.2898 0
-4.84683 11.7523 0
-4.01516 10.8414 0
5.37618 13.1429 0
4.5368 11.5186 0
13.0145 13.6936 0
10.6235 13.5986 0
-2.87512 14.3093 0
-4.90574 14.0674 0
-2.2597 25.8849 0
0.339243 15.2201 0
-6.98055 12.2591 0
-4.88297 13.4746 0
-12.779 12.8038 0
-9.83479 12.9107 0
6.32255 17.4276 0
8.34948 15.9193 0
-0.783277 13.9549 0
-0.46765 12.7623 0
-8.82016 21.1048 0
-10.7607 21.9671 0
0.605388 26.9103 0
2.68226 15.6467 0
-2.94166 16.6887 0
-8.25099 21.5582 0
-10.6727 15.3495 0
-12.8217 15.2285 0
-6.75459 16.0091 0
-6.45888 14.6511 0
-6.81643 12.7788 0
-7.62614 14.0176 0
12.9824 15.9321 0
10.6191 16.1108 0
-7.4692 23.3442 0
-8.54127 25.0223 0
6.52573 12.9235 0
5.37784 13.141 0
9.79163 17.5054 0
8.26582 16.8076 0
4.40538 14.2942 0
6.8353 17.0695 0
-1.94051 15.7132 0
-0.163713 16.0162 0
8.03894 26.0096 0
6.75837 24.3014 0
0.667228 15.1799 0
1.78539 16.1388 0
4.48939 25.0769 0
4.41737 16.6633 0
13.0048 14.8177 0
10.33 14.8598 0
-8.43087 16.0266 0
-8.74003 15.0445 0
-9.68774 13.222 0
-7.70329 13.6332 0
-8.72173 20.3798 0
-6.18073 17.473 0
-0.0185202 27.0621 0
-0.409799 28.8789 0
2.19356 13.8747 0
2.99728 12.5475 0
-3.90566 16.0486 0
-4.04495 15.2068 0
-11.3386 20.5808 0
-9.36023 19.8606 0
0.329274 17.4058 0
0.00690704 17.1861 0
8.12124 14.1882 0
7.59411 14.9853 0
9.1252 12.5752 0
7.97742 13.7498 0
-8.39493 22.4651 0
-9.9971 23.375 0
-2.43374 16.5783 0
-1.40308 17.741 0
1.98338 17.2338 0
3.69638 17.5253 0
6.6987 14.9874 0
6.36882 15.4973 0
-6.7792 19.3732 0
-6.38955 19.618 0
-8.97838 17.598 0
-6.53974 16.9564 0
4.33389 16.3671 0
5.12946 15.3928 0
-6.16207 23.6005 0
-3.43695 18.221 0
6.79533 27.019 0
5.7547 25.3431 0
-3.58146 27.9195 0
-2.83591 25.9769 0
8.37895 18.9491 0
7.5793 17.3409 0
10.0503 23.2009 0
8.10641 22.2554 0
4.20857 19.5323 0
5.81604 20.2678 0
1.64192 19.3146 0
3.99684 19.61 0
1.13391 24.3542 0
-1.69218 24.5403 0
-2.37594 23.2004 0
-3.52815 20.2531 0
-6.35361 16.4188 0
-4.23727 15.1521 0
-6.75818 23.1421 0
-6.63953 21.0197 0
4.39088 23.3698 0
5.6311 21.691 0
-11.7795 19.2757 0
-9.16306 18.4734 0
-9.04392 18.593 0
-6.93704 18.5471 0
-0.16034 19.2787 0
0.327885 18.8323 0
2.88556 26.9733 0
1.54508 21.8449 0
3.77503 28.7668 0
3.38456 27.1743 0
-6.0321 26.8427 0
-5.28815 24.9493 0
-5.26437 17.4829 0
-4.75164 18.3574 0
8.12843 19.56 0
6.78305 19.09 0
1.98234 17.236 0
2.40683 18.6659 0
9.9608 18.1982 0
12.2833 18.9517 0
11.0394 21.2465 0
8.26728 19.4901 0
-4.27258 24.606 0
-3.06345 21.642 0
-1.79931 18.909 0
-2.84491 19.0298 0
2.8173 22.5666 0
3.27678 22.4136 0
-5.14181 19.2527 0
-4.45699 20.2292 0
4.41304 18.6326 0
6.2174 18.2351 0
-0.861935 22.0138 0
0.771999 22.6115 0
1.35795 25.5562 0
2.63507 25.8248 0
-1.52473 26.7387 0
-2.0585 28.4613 0
-0.566363 26.5082 0
-0.215478 25.042 0
-7.76956 25.6807 0
-6.1991 24.2801 0
-1.56792 19.2078 0
-3.05644 21.644 0
-4.60589 22.5713 0
-4.21407 22.7207 0
4.48727 25.0782 0
3.44525 24.8422 0
3.83549 21.1458 0
5.53525 21.7285 0
6.41434 24.2928 0
5.3573 22.9979 0
9.33907 24.4505 0
7.47267 23.4698 0
-3.67653 24.9367 0
-2.65122 23.1554 0
5.88535 27.6989 0
4.63147 26.3649 0
1.96527 20.5949 0
3.60283 20.7513 0
-4.82873 27.395 0
-3.90339 24.9798 0
1.13584 24.3557 0
2.60645 23.6556 0
0.168775 20.7082 0
1.40634 21.1409 0
-6.29077 21.3785 0
-5.06405 21.2707 0
7.94223 21.1012 0
6.01183 20.7135 0
-0.838578 21.4017 0
-1.914 20.7579 0
10.6326 22.0337 0
8.20442 20.8973 0
-0.839534 24.422 0
-0.192698 22.6053 0
-4.2288 23.1955 0
-2.8876 23.566 0

CELLS 624 1872
2 160 0
2 1 2
2 2 3
2 161 4
2 4 5
2 5 0
2 2 6
2 6 7
2 7 8
2 8 9
2 3 9
2 9 144
2 10 11
2 11 12
2 145 4
2 12 13
2 13 14
2 15 14
2 5 156
2 7 16
2 17 178
2 147 17
2 19 18
2 19 8
2 20 19
2 21 20
2 10 21
2 153 125
2 23 22
2 24 23
2 24 124
2 127 24
2 26 25
2 26 13
2 27 26
2 28 27
2 29 28
2 14 168
2 30 17
2 30 31
2 32 31
2 32 146
2 18 33
2 33 148
2 128 35
2 20 152
2 35 36
2 37 36
2 22 37
2 37 163
2 38 131
2 175 40
2 40 23
2 126 40
2 42 41
2 25 192
2 43 42
2 43 44
2 193 27
2 45 44
2 46 45
2 47 171
2 173 47
2 48 186
2 48 49
2 49 50
2 34 50
2 50 51
2 52 129
2 36 52
2 52 53
2 53 162
2 54 38
2 55 54
2 139 55
2 57 56
2 39 57
2 58 57
2 59 133
2 41 59
2 59 196
2 61 60
2 197 43
2 199 61
2 62 63
2 195 185
2 49 64
2 64 65
2 177 65
2 51 134
2 67 66
2 68 67
2 53 136
2 69 68
2 70 69
2 55 137
2 165 70
2 233 71
2 73 72
2 140 56
2 215 73
2 74 75
2 58 142
2 76 75
2 77 76
2 60 143
2 77 198
2 78 79
2 79 62
2 65 80
2 80 81
2 81 176
2 67 200
2 82 83
2 83 191
2 69 208
2 84 85
2 164 216
2 71 225
2 86 279
2 158 250
2 88 89
2 290 252
2 254 214
2 90 91
2 91 211
2 91 92
2 92 93
2 93 210
2 189 93
2 94 95
2 95 78
2 96 1
2 96 97
2 97 6
2 97 98
2 16 98
2 179 99
2 99 30
2 31 100
2 187 101
2 101 48
2 101 102
2 102 64
2 102 103
2 103 80
2 81 104
2 104 105
2 83 105
2 105 190
2 85 106
2 217 120
2 87 107
2 108 88
2 255 122
2 109 90
2 109 110
2 92 110
2 110 188
2 111 94
2 95 112
2 112 113
2 113 79
2 113 114
2 63 114
2 114 194
2 115 46
2 116 47
2 116 172
2 117 29
2 169 118
2 118 15
2 157 119
2 0 119
2 119 180
2 99 100
2 103 104
2 249 292
2 111 112
2 183 116
2 120 204
2 121 224
2 120 121
2 122 242
2 123 282
2 122 123
2 124 11
2 125 21
2 124 125
2 41 126
2 127 25
2 126 127
2 34 128
2 129 51
2 128 129
2 203 130
2 131 39
2 130 131
2 39 132
2 133 58
2 132 133
2 134 66
2 135 68
2 134 135
2 136 135
2 137 70
2 136 137
2 207 138
2 130 139
2 139 138
2 140 73
2 75 141
2 231 140
2 142 141
2 143 77
2 142 143
2 144 10
2 145 12
2 144 145
2 146 33
2 147 18
2 146 147
2 148 34
2 149 35
2 148 149
2 221 150
2 151 74
2 150 240
2 152 149
2 153 22
2 152 153
2 94 154
2 155 78
2 154 155
2 156 15
2 157 118
2 156 157
2 266 87
2 357 222
2 159 158
2 181 160
2 161 3
2 160 161
2 162 54
2 163 174
2 162 163
2 164 121
2 71 165
2 165 164
2 391 166
2 247 167
2 166 337
2 168 29
2 169 117
2 168 169
2 44 170
2 171 182
2 170 171
2 172 117
2 173 28
2 172 173
2 174 38
2 175 132
2 174 175
2 176 82
2 177 66
2 176 177
2 178 16
2 179 98
2 178 179
2 180 96
2 181 1
2 180 181
2 182 46
2 183 115
2 182 183
2 61 184
2 185 63
2 184 185
2 186 32
2 187 100
2 186 187
2 188 111
2 189 154
2 188 189
2 190 106
2 191 84
2 190 191
2 192 42
2 193 170
2 192 193
2 194 115
2 195 45
2 194 195
2 196 60
2 197 184
2 196 197
2 198 155
2 199 62
2 198 199
2 200 82
2 201 84
2 200 201
2 72 202
2 203 56
2 202 203
2 204 234
2 205 235
2 205 204
2 261 206
2 167 207
2 206 245
2 208 201
2 209 85
2 208 209
2 210 76
2 227 74
2 210 211
2 236 72
2 213 167
2 239 274
2 214 123
2 230 215
2 241 237
2 216 209
2 217 106
2 216 217
2 89 218
2 219 108
2 218 219
2 220 109
2 221 226
2 220 221
2 222 358
2 320 223
2 223 222
2 224 298
2 264 225
2 225 224
2 226 90
2 227 211
2 226 227
2 228 288
2 289 229
2 228 268
2 151 230
2 231 141
2 230 231
2 229 232
2 233 138
2 265 233
2 234 278
2 235 86
2 235 234
2 236 212
2 257 237
2 291 236
2 248 284
2 246 239
2 271 295
2 240 151
2 241 215
2 240 258
2 242 220
2 243 150
2 242 243
2 277 244
2 232 306
2 245 267
2 212 246
2 247 202
2 246 247
2 253 248
2 301 249
2 249 248
2 374 238
2 251 228
2 294 354
2 252 302
2 300 253
2 335 309
2 218 254
2 255 219
2 254 255
2 280 256
2 259 281
2 256 257
2 258 241
2 259 257
2 283 259
2 260 107
2 261 87
2 260 261
2 238 319
2 375 318
2 263 262
2 299 264
2 232 265
2 265 264
2 223 356
2 244 269
2 267 266
2 268 229
2 321 267
2 313 307
2 212 270
2 271 239
2 270 271
2 272 316
2 273 388
2 272 273
2 274 213
2 275 251
2 274 275
2 384 276
2 277 312
2 276 336
2 278 260
2 279 206
2 278 279
2 89 280
2 281 214
2 280 281
2 282 243
2 283 258
2 282 283
2 284 293
2 311 285
2 308 284
2 250 286
2 287 159
2 286 287
2 288 213
2 289 207
2 288 289
2 285 350
2 333 291
2 291 290
2 292 338
2 293 340
2 293 292
2 403 345
2 330 370
2 295 294
2 86 296
2 297 245
2 296 297
2 298 205
2 299 296
2 298 299
2 262 300
2 301 263
2 300 301
2 302 270
2 303 295
2 302 303
2 304 275
2 305 277
2 304 305
2 306 297
2 307 269
2 306 307
2 308 341
2 315 252
2 309 308
2 88 310
2 311 332
2 310 311
2 312 251
2 313 268
2 312 313
2 314 334
2 309 366
2 315 363
2 316 394
2 276 317
2 317 316
2 318 398
2 392 319
2 319 318
2 359 320
2 269 321
2 321 320
2 322 390
2 323 166
2 322 323
2 324 368
2 369 353
2 324 325
2 343 326
2 327 324
2 326 355
2 372 250
2 329 238
2 328 377
2 329 330
2 382 314
2 361 381
2 332 256
2 333 237
2 332 333
2 262 334
2 335 253
2 334 404
2 336 365
2 407 325
2 389 387
2 338 108
2 339 310
2 338 339
2 340 339
2 341 285
2 340 341
2 303 362
2 343 294
2 342 343
2 344 158
2 371 328
2 344 373
2 346 159
2 347 344
2 346 347
2 348 378
2 349 379
2 348 349
2 350 290
2 351 315
2 350 351
2 411 352
2 325 353
2 353 352
2 354 304
2 355 327
2 354 355
2 356 266
2 357 107
2 356 357
2 358 410
2 352 359
2 359 358
2 349 360
2 331 361
2 360 414
2 362 380
2 331 363
2 363 362
2 345 364
2 386 365
2 365 364
2 366 351
2 367 331
2 366 367
2 368 305
2 369 244
2 368 369
2 402 408
2 345 371
2 413 371
2 372 400
2 401 385
2 373 372
2 286 376
2 375 287
2 374 375
2 376 374
2 377 412
2 376 377
2 378 263
2 379 314
2 378 379
2 380 342
2 330 393
2 409 380
2 405 382
2 383 361
2 382 383
2 395 384
2 385 373
2 384 385
2 397 386
2 387 337
2 386 387
2 388 317
2 389 336
2 388 389
2 390 272
2 391 273
2 390 391
2 392 399
2 381 393
2 415 392
2 394 346
2 395 347
2 394 395
2 326 396
2 397 327
2 396 397
2 398 348
2 399 360
2 398 399
2 400 328
2 401 364
2 400 401
2 342 402
2 403 396
2 402 403
2 404 335
2 405 367
2 404 405
2 323 406
2 407 337
2 406 407
2 408 370
2 409 381
2 408 409
2 410 322
2 411 406
2 410 411
2 412 329
2 413 370
2 412 413
2 414 383
2 415 393
2 414 415

CELL_TYPES 624
3
3
3
3
3
3
3
3
3
3
3
3
3
3
3
3
3
3
3
3
3
3
3
3
3
3
3
3
3
3
3
3
3
3
3
3
3
3
3
3
3
3
3
3
3
3
3
3
3
3
3
3
3
3
3
3
3
3
3
3
3
3
3
3
3
3
3
3
3
3
3
3
3
3
3
3
3
3
3
3
3
3
3
3
3
3
3
3
3
3
3
3
3
3
3
3
3
3
3
3
3
3
3
3
3
3
3
3
3
3
3
3
3
3
3
3
3
3
3
3
3
3
3
3
3
3
3
3
3
3
3
3
3
3
3
3
3
3
3
3
3
3
3
3
3
3
3
3
3
3
3
3
3
3
3
3
3
3
3
3
3
3
3
3
3
3
3
3
3
3
3
3
3
3
3
3
3
3
3
3
3
3
3
3
3
3
3
3
3
3
3
3
3
3
3
3
3
3
3
3
3
3
3
3
3
3
3
3
3
3
3
3
3
3
3
3
3
3
3
3
3
3
3
3
3
3
3
3
3
3
3
3
3
3
3
3
3
3
3
3
3
3
3
3
3
3
3
3
3
3
3
3
3
3
3
3
3
3
3
3
3
3
3
3
3
3
3
3
3
3
3
3
3
3
3
3
3
3
3
3
3
3
3
3
3
3
3
3
3
3
3
3
3
3
3
3
3
3
3
3
3
3
3
3
3
3
3
3
3
3
3
3
3
3
3
3
3
3
3
3
3
3
3
3
3
3
3
3
3
3
3
3
3
3
3
3
3
3
3
3
3
3
3
3
3
3
3
3
3
3
3
3
3
3
3
3
3
3
3
3
3
3
3
3
3
3
3
3
3
3
3
3
3
3
3
3
3
3
3
3
3
3
3
3
3
3
3
3
3
3
3
3
3
3
3
3
3
3
3
3
3
3
3
3
3
3
3
3
3
3
3
3
3
3
3
3
3
3
3
3
3
3
3
3
3
3
3
3
3
3
3
3
3
3
3
3
3
3
3
3
3
3
3
3
3
3
3
3
3
3
3
3
3
3
3
3
3
3
3
3
3
3
3
3
3
3
3
3
3
3
3
3
3
3
3
3
3
3
3
3
3
3
3
3
3
3
3
3
3
3
3
3
3
3
3
3
3
3
3
3
3
3
3
3
3
3
3
3
3
3
3
3
3
3
3
3
3
3
3
3
3
3
3
3
3
3
3
3
3
3
3
3
3
3
3
3
3
3
3
3
3
3
3
3
3
3
3
3
3
3
3
3
3
3
3
3
3
3
3
3
3
3
3
3
3
3
3
3
3
3
3
3
3
3
3
3
3
3
3
3
3
3
3
3
3
3
3
3
3
3
3
3
3
3
3
3
3
3
3
3
3
3
3
3
3
3
3
3
3
3
3
3
3
3
3
3
3
3
3
3
3
3
3
3

CELL_DATA 624
SCALARS current_Length float
LOOKUP_TABLE default
0.898992
1.01104
1.46581
1.4899
1.63288
1.47605
0.556735
1.02977
1.73749
1.134
1.00134
1.2385
1.80179
1.47883
0.438913
0.204853
1.68163
1.01205
0.0486881
0.604426
0.561913
0.771411
0.326834
0.68605
1.26168
1.12685
0.796033
1.04304
1.01906
1.95279
0.362017
0.672009
1.81849
0.52386
1.36197
1.09352
0.767839
0.843138
1.08386
0.994099
1.31795
0.850319
2.03867
0.00249731
1.35956
1.56764
1.37074
1.01361
0.772973
0.889512
0.687121
0.697325
1.17586
1.56491
1.71672
1.06566
1.05186
1.46669
1.20339
1.46794
1.04963
0.63125
0.739487
0.550732
1.04184
0.801628
1.18035
2.12409
1.678
1.53145
0.746093
1.15726
1.60167
0.962276
0.869824
0.629819
1.17431
1.66278
0.884
1.13418
0.911154
1.80043
0.364926
0.688983
0.587215
0.53541
1.06219
0.00250244
1.42
0.00249291
1.32572
1.64272
0.848533
0.765207
1.10064
1.63284
0.088253
1.54003
0.278016
0.842172
1.40192
1.19192
0.705539
1.3376
0.304976
0.582768
1.26386
0.446631
0.840691
1.55381
1.05941
1.11869
1.03159
1.2061
1.09346
1.62665
0.836223
0.729866
1.43584
0.553623
1.33113
0.383184
1.15714
0.830361
0.743993
2.04908
0.67507
1.42022
2.13328
0.00251448
1.14282
1.03674
2.05125
1.33682
2.53796
0.949733
2.66765
1.13726
2.22145
2.24352
1.63826
3.1006
0.21813
3.16163
1.33534
2.05104
2.15225
0.844688
2.1331
2.08852
2.19619
0.780467
2.30596
2.86307
1.33369
2.32871
1.40434
2.29094
1.26359
1.99932
2.01636
1.42095
2.65598
0.994704
2.91911
0.775778
2.53183
2.61244
1.76144
2.78801
0.633397
2.74039
1.40615
2.03149
1.57152
1.95251
2.1074
1.50196
2.15164
1.0464
0.0100556
0.596787
3.5486
1.09156
1.09326
2.4709
1.41433
1.61377
1.40539
0.431967
1.01856
1.80366
1.77732
1.07283
1.02038
1.3077
1.30643
0.936157
1.46708
1.3342
1.36352
0.971265
1.11809
2.04063
1.07661
1.63878
1.18947
0.31223
2.14516
0.00250737
1.67221
1.519
1.31747
0.888292
1.6843
1.35967
0.597556
1.43954
1.78942
1.62432
1.65373
1.93343
0.772785
1.1089
2.17084
0.441546
0.604424
2.38172
0.0025012
1.27045
1.63679
1.38021
1.78974
1.5878
0.692894
1.72648
2.69268
0.87436
1.86007
1.29473
0.695009
1.03412
1.42916
1.11797
1.12405
1.63843
0.551552
0.329476
3.0622
0.687457
1.06293
2.05639
0.640356
1.70596
2.81417
1.10601
0.978146
1.42062
0.768569
0.981179
2.63845
1.53391
0.836562
1.14766
0.217691
1.05923
1.80802
0.752581
1.74559
2.59671
2.09988
1.15151
2.00579
0.794467
1.87135
2.42202
1.16197
0.956689
1.72859
0.32887
1.06435
2.93791
1.4102
0.125392
2.94831
1.53942
0.677437
2.04309
1.00401
0.706692
1.55836
0.921245
0.508606
3.12492
1.05416
1.10431
1.97958
1.09354
1.93289
1.00159
1.53881
1.73874
0.644598
2.13877
1.62766
0.676208
1.92327
0.7486
2.62043
0.831013
2.08558
1.74861
1.24957
1.5365
1.62906
1.20954
1.22251
0.952292
1.1398
1.40945
0.330438
0.68829
1.3705
0.593252
0.00251086
1.23253
3.25866
1.16098
1.21398
2.1706
1.2251
0.00251423
3.17858
0.751682
1.15679
2.59964
0.723998
1.05608
2.04556
1.41328
0.899492
2.11276
1.00367
1.83066
1.61248
1.50341
0.90618
1.23341
0.720614
2.01208
1.82752
1.12411
0.966354
2.3929
0.770576
1.65922
1.47441
0.731612
1.69143
1.18235
1.01536
0.645045
0.544965
0.853266
0.945223
2.94612
2.05279
2.26964
0.892256
1.56551
0.424243
1.23358
0.727675
1.60166
2.12354
1.12661
1.00902
1.66176
0.519768
0.918306
1.42382
1.03619
2.03039
2.15238
1.67637
1.51498
1.38981
2.05485
1.32808
0.392044
1.91849
0.903226
2.37004
0.583511
1.61645
1.99136
1.67037
0.00251203
1.16831
0.768616
0.625448
1.6778
1.03888
0.869356
1.24376
1.0889
0.941616
1.80244
1.60174
0.344132
2.13488
1.3665
1.023
1.47297
0.00250279
0.307714
1.7099
1.11467
0.705184
2.67514
1.32059
1.4049
1.02968
0.344289
1.23153
2.0266
0.823006
0.629051
2.18785
0.642103
2.02564
1.85849
0.971124
1.10969
1.55166
0.916418
0.199938
0.853303
1.37753
1.30637
2.10545
0.717513
1.92364
0.390124
1.94267
1.20122
0.955603
1.32398
0.46137
1.64229
1.27658
2.19837
1.84252
0.995887
1.51524
1.55374
1.11277
1.1238
1.73763
0.895411
1.63989
0.607286
0.841051
1.61037
0.460164
0.573441
0.568964
2.52162
1.80192
1.31574
1.25788
0.752005
1.30013
1.00237
1.1359
1.29302
1.97271
1.35307
1.33738
2.0808
0.552376
0.791979
1.79601
1.43782
0.910955
2.16167
0.922653
1.02506
1.76772
1.39976
0.225538
1.00296
1.54923
1.45948
1.51461
1.5042
1.86575
0.00730251
0.573236
1.27415
2.46645
0.739174
1.69903
1.82451
1.46817
0.486825
1.28184
0.947808
0.894677
2.73668
0.168861
1.3137
2.10738
1.2334
1.42643
0.661557
1.5051
1.77982
1.17555
2.19014
0.537965
1.63966
2.09022
1.13036
2.0343
1.9757
1.32175
1.01366
1.3395
1.52388
1.4251
0.00250378
1.84919
1.49152
0.713155
1.19068
2.44168
0.886091
0.155447
3.28173
1.07203
1.4645
1.88627
0.377918
1.40118
1.05256
1.46268
1.38545
0.484274
0.976628
0.929147
1.19272
1.31898
0.814347
1.84761
1.22301
1.08875
0.964716
1.2208
1.45319
1.30506
0.779095
1.70078
1.80335
0.985715
0.879745
1.50752
1.01441
0.680534
2.10431
1.40936
0.278947
1.58821
1.37891
1.57719
0.419321
1.2947
1.27349
1.06842
0.458058
0.102935
1.79685
1.24026
1.03552
1.67159
2.03008
1.09625
2.10833
0.230909
1.56474
2.05532
2.36514
1.4866
1.8308
1.32052
1.20735
1.645
1.32406
0.525348
2.58643
0.00250201
1.10916
1.62879
1.46688
0.781358
1.31104
0.50034
1.20555
1.23144
1.16578
1.049
1.96895
0.6125
1.44582
1.25341
1.3044
0.332153
2.68094
0.860813
0.893194
1.92837
3.29689
3.3505
0

SCALARS edge_force float
LOOKUP_TABLE default
0.5
0.5
0.5
0.5
0.5
0.5
0.5
0.5
0.5
0.5
0.5
0.5
0.5
0.5
0.5
0.5
0.5
0.5
0.5
0.5
0.5
0.5
0.5
0.5
0.5
0.5
0.5
0.5
0.5
0.5
0.5
0.5
0.5
0.5
0.5
0.5
0.5
0.5
0.5
0.5
0.5
0.5
0.5
0.5
0.5
0.5
0.5
0.5
0.5
0.5
0.5
0.5
0.5
0.5
0.5
0.5
0.5
0.5
0.5
0.5
0.5
0.5
0.5
0.5
0.5
0.5
0.5
0.5
0.5
0.5
0.5
0.5
0.5
0.5
0.5
0.5
0.5
0.5
0.5
0.5
0.5
0.5
0.5
0.5
0.5
0.5
0.5
0.5
0.5
0.5
0.5
0.5
0.5
0.5
0.5
0.5
0.5
0.5
0.5
0.5
0.5
0.5
0.5
0.5
0.5
0.5
0.5
0.5
0.5
0.5
0.5
0.5
0.5
0.5
0.5
0.5
0.5
0.5
0.5
0.5
0.5
0.5
0.5
0.5
0.5
0.5
0.5
0.5
0.5
0.5
0.5
0.5
0.5
2
0.5
2
0.5
2
0.5
0.5
2
0.5
2
0.5
2
0.5
0.5
2
0.5
2
0.5
2
0.5
0.5
2
0.5
2
0.5
2
0.5
0.5
2
0.5
2
0.5
2
0.5
0.5
2
0.5
2
0.5
2
0.5
2
2
2
2
2
2
2
0.5
0.5
2
0.5
0.5
0.5
0.5
0.5
0.5
0.5
0.5
0.5
0.5
0.5
0.5
0.5
0.5
0.5
0.5
0.5
0.5
0.5
0.5
0.5
0.5
0.5
0.5
0.5
0.5
0.5
0.5
0.5
0.5
0.5
0.5
0.5
0.5
0.5
0.5
0.5
0.5
0.5
0.5
0.5
0.5
0.5
0.5
0.5
0.5
0.5
0.5
0.5
0.5
0.5
2
0.5
0.5
2
0.5
0.5
0.5
0.5
0.5
0.5
0.5
0.5
0.5
0.5
0.5
0.5
0.5
0.5
2
0.5
0.5
0.5
0.5
2
0.5
0.5
0.5
0.5
0.5
0.5
0.5
0.5
0.5
2
0.5
2
0.5
0.5
0.5
2
0.5
0.5
0.5
0.5
0.5
2
0.5
2
0.5
0.5
2
0.5
0.5
0.5
0.5
0.5
2
0.5
0.5
0.5
0.5
0.5
0.5
0.5
0.5
0.5
0.5
0.5
0.5
0.5
0.5
2
0.5
0.5
0.5
0.5
0.5
0.5
0.5
0.5
0.5
0.5
0.5
0.5
0.5
0.5
0.5
0.5
0.5
0.5
2
0.5
0.5
2
0.5
2
0.5
0.5
2
0.5
0.5
0.5
0.5
0.5
0.5
0.5
0.5
0.5
0.5
0.5
0.5
0.5
0.5
0.5
0.5
0.5
2
0.5
0.5
0.5
0.5
0.5
0.5
0.5
0.5
0.5
0.5
0.5
2
0.5
0.5
0.5
0.5
0.5
0.5
0.5
0.5
0.5
2
0.5
0.5
0.5
0.5
0.5
0.5
0.5
0.5
2
0.5
0.5
0.5
0.5
0.5
0.5
0.5
2
0.5
0.5
0.5
2
0.5
0.5
0.5
0.5
0.5
0.5
0.5
0.5
0.5
0.5
0.5
0.5
0.5
2
0.5
0.5
0.5
0.5
0.5
0.5
0.5
0.5
2
0.5
0.5
0.5
0.5
0.5
0.5
0.5
0.5
0.5
0.5
0.5
0.5
2
0.5
0.5
0.5
0.5
0.5
0.5
0.5
2
0.5
0.5
0.5
0.5
0.5
0.5
0.5
0.5
0.5
0.5
0.5
0.5
2
0.5
0.5
0.5
0.5
0.5
0.5
0.5
0.5
0.5
0.5
0.5
0.5
0.5
0.5
0.5
0.5
0.5
0.5
0.5
0.5
0.5
0.5
2
0.5
0.5
2
0.5
0.5
0.5
0.5
0.5
2
0.5
0.5
0.5
0.5
0.5
0.5
0.5
0.5
0.5
0.5
0.5
0.5
0.5
0.5
0.5
0.5
0.5
0.5
0.5
0.5
0.5
0.5
0.5
2
0.5
0.5
0.5
0.5
0.5
0.5
0.5
0.5
0.5
0.5
0.5
2
0.5
0.5
2
0.5
0.5
0.5
0.5
0.5
0.5
0.5
0.5
0.5
0.5
0.5
0.5
2
0.5
2
0.5
0.5
0.5
0.5
0.5
0.5
0.5
0.5
0.5
0.5
0.5
0.5
0.5
0.5
0.5
0.5
0.5
0.5
0.5
0.5
0.5
0.5
0.5
0.5
2
0.5
0.5
0.5
0.5
2
0.5
0.5
0.5
0.5
0.5
0.5
0.5
0.5
0.5
0.5
0.5
0.5
0.5
0.5
0.5
0.5
0.5
2
0.5
0.5
0.5
0.5
0.5
2
0.5
0.5
0.5
0.5
0.5
2
0.5
0.5
0.5
0.5
0.5
0.5
0.5
0.5
0.5
0.5
0.5
0.5
0.5
0.5
0.5
0.5
0.5
2
0.5
0.5
0.5
0.5
0.5
0
0
0
